 Gaussian 16, Revision A.03,
 Gaussian 16:  EM64L-G16RevA.03 25-Dec-2016

 ----------------------------------------------------------------------
 #p m062x/cc-pVTZ opt=(calcfc,maxcycles=900,Tight) freq IOP(7/33=1,2/16
 =3) scf=(maxcycle=900)
 ----------------------------------------------------------------------

 ------------------------------
 Gaussian input prepared by ASE
 ------------------------------
 Symbolic Z-matrix:
 Charge =  0 Multiplicity = 1

 SCF Done:  E(RM062X) =  -268.307755190     A.U. after   13 cycles
 SCF Done:  E(RM062X) =  -268.315879514     A.U. after   14 cycles
 SCF Done:  E(RM062X) =  -268.314738887     A.U. after   14 cycles
 SCF Done:  E(RM062X) =  -268.318321927     A.U. after   12 cycles
 SCF Done:  E(RM062X) =  -268.319148306     A.U. after   12 cycles
 SCF Done:  E(RM062X) =  -268.319280384     A.U. after   10 cycles
 SCF Done:  E(RM062X) =  -268.319297176     A.U. after   10 cycles
 SCF Done:  E(RM062X) =  -268.319309591     A.U. after   10 cycles
 SCF Done:  E(RM062X) =  -268.319309798     A.U. after    8 cycles
 SCF Done:  E(RM062X) =  -268.319309809     A.U. after    6 cycles
 SCF Done:  E(RM062X) =  -268.319309810     A.U. after    5 cycles
 SCF Done:  E(RM062X) =  -268.319309810     A.U. after    3 cycles
 Optimization completed.
    -- Stationary point found.
 Normal termination of Gaussian 16 at Sat Aug 31 12:31:16 2019.

 ----------------------------------------------------------------------
 #P Geom=AllCheck Guess=TCheck SCRF=Check Test GenChk RM062X/CC-pVTZ Fr
 eq
 ----------------------------------------------------------------------

 Structure from the checkpoint file:  "/scratch/harms.n/gauss_scrdir/Gau-24715.chk"
 ------------------------------
 Gaussian input prepared by ASE
 ------------------------------
 Charge =  0 Multiplicity = 1

                         Standard orientation:
 ---------------------------------------------------------------------
 Center     Atomic      Atomic             Coordinates (Angstroms)
 Number     Number       Type             X           Y           Z
 ---------------------------------------------------------------------
      1          8           0        1.278039    0.679045   -0.000000
      2          8           0       -2.264885   -0.268564   -0.000000
      3          6           0        1.870348   -0.597069    0.000000
      4          6           0       -0.080970    0.697202   -0.000000
      5          6           0       -0.898045   -0.350825   -0.000000
      6          1           0        1.578954   -1.162326    0.890353
      7          1           0        1.578956   -1.162326   -0.890353
      8          1           0        2.945435   -0.445240    0.000002
      9          1           0       -0.463253    1.710916    0.000000
     10          1           0       -0.561569   -1.375659   -0.000001
     11          1           0       -2.531755    0.654938    0.000004
 ---------------------------------------------------------------------

 SCF Done:  E(RM062X) =  -268.319309810     A.U. after    1 cycles

 The electronic state is 1-A.
 Alpha  occ. eigenvalues --  -19.65229 -19.64562 -10.58785 -10.58560 -10.58398
 Alpha  occ. eigenvalues --   -1.19146  -1.17372  -0.85490  -0.79699  -0.68926
 Alpha  occ. eigenvalues --   -0.60706  -0.59840  -0.54914  -0.51173  -0.47838
 Alpha  occ. eigenvalues --   -0.47085  -0.46004  -0.40549  -0.40428  -0.26619
 Alpha virt. eigenvalues --    0.06534   0.07852   0.08471   0.10200   0.13475
 Alpha virt. eigenvalues --    0.14724   0.14753   0.16255   0.23669   0.27212
 Alpha virt. eigenvalues --    0.29446   0.30697   0.33885   0.34529   0.38413

 Mulliken charges:
               1
     1  O   -0.234032
     2  O   -0.347000
     3  C   -0.156288
     4  C   -0.066471
     5  C   -0.051095
     6  H    0.091066
     7  H    0.091066
     8  H    0.119962
     9  H    0.138336
    10  H    0.164138
    11  H    0.250318
 Sum of Mulliken charges =  -0.00000

 Dipole moment (field-independent basis, Debye):
    X=              0.4101    Y=              0.1141    Z=              0.0000  Tot=              0.4257
 Quadrupole moment (field-independent basis, Debye-Ang):
   XX=            -29.7212   YY=            -28.1460   ZZ=            -32.3284
   XY=             -6.9183   XZ=             -0.0000   YZ=              0.0000

  Exact polarizability:  55.917   0.939  44.117  -0.000   0.000  31.345
 Approx polarizability:  60.145   6.093  56.093  -0.000   0.000  38.629

                      1                      2                      3
                      A                      A                      A
 Frequencies --    173.6018               261.0837               278.4569
 Red. masses --      1.6784                 3.4191                 1.4057
 Frc consts  --      0.0298                 0.1373                 0.0642
 IR Inten    --     24.0364                11.1996                13.7266

                      4                      5                      6
                      A                      A                      A
 Frequencies --    299.8502               387.9047               412.4191
 Red. masses --      1.0893                 3.6795                 3.4132
 Frc consts  --      0.0577                 0.3262                 0.3421
 IR Inten    --     41.6569                24.2349                 6.7214

                      7                      8                      9
                      A                      A                      A
 Frequencies --    641.1743               836.6440               936.5835
 Red. masses --      4.5584                 1.8717                 1.0890
 Frc consts  --      1.1041                 0.7719                 0.5628
 IR Inten    --      4.2892                 0.3393                74.3796

                     10                     11                     12
                      A                      A                      A
 Frequencies --   1012.2873              1141.4226              1190.2666
 Red. masses --      3.8587                 2.1416                 1.2864
 Frc consts  --      2.3297                 1.6439                 1.0737
 IR Inten    --     40.9742               192.0889                 2.7216

                     13                     14                     15
                      A                      A                      A
 Frequencies --   1205.0425              1266.5786              1306.6621
 Red. masses --      1.7259                 2.7480                 2.2154
 Frc consts  --      1.4766                 2.5974                 2.2286
 IR Inten    --     56.3900               197.7054                56.5144

                     16                     17                     18
                      A                      A                      A
 Frequencies --   1351.0535              1399.8418              1485.5910
 Red. masses --      1.2105                 1.2623                 1.1812
 Frc consts  --      1.3019                 1.4574                 1.5359
 IR Inten    --      7.4203                45.5019                 2.1591

                     19                     20                     21
                      A                      A                      A
 Frequencies --   1500.8444              1521.4735              1772.3770
 Red. masses --      1.0440                 1.0463                 5.6568
 Frc consts  --      1.3855                 1.4270                10.4696
 IR Inten    --      8.9197                17.3012                 0.3295

                     22                     23                     24
                      A                      A                      A
 Frequencies --   3028.0477              3084.1572              3168.8365
 Red. masses --      1.0356                 1.1046                 1.0990
 Frc consts  --      5.5944                 6.1908                 6.5018
 IR Inten    --     32.3988                36.3485                17.6944

                     25                     26                     27
                      A                      A                      A
 Frequencies --   3196.4240              3256.2382              3874.6026
 Red. masses --      1.0919                 1.0922                 1.0657
 Frc consts  --      6.5732                 6.8232                 9.4261
 IR Inten    --     17.1516                 8.9448                48.3674

 - Thermochemistry -
 -------------------
 Temperature   298.150 Kelvin.  Pressure   1.00000 Atm.
 Atom     1 has atomic number  8 and mass  15.99491

 Molecular mass:    74.03678 amu.
 Principal axes and moments of inertia in atomic units:
                           1         2         3
     Eigenvalues --   105.68426 651.63125 745.90336
           X            0.99905  -0.04361  -0.00000
           Y            0.04361   0.99905   0.00000
           Z            0.00000  -0.00000   1.00000
 This molecule is an asymmetric top.
 Rotational symmetry number  1.
 Rotational temperatures (Kelvin)      0.81955     0.13292     0.11612
 Rotational constants (GHZ):          17.07673     2.76957     2.41954
 Zero-point vibrational energy     239190.1 (Joules/Mol)
                                   57.16781 (Kcal/Mol)
 Warning -- explicit consideration of   6 degrees of freedom as
           vibrations may cause significant error
 Vibrational temperatures:    249.77   375.64   400.64   431.42   558.11
          (Kelvin)            593.38   922.51  1203.74  1347.53  1456.46
                             1642.25  1712.53  1733.79  1822.32  1880.00
                             1943.86  2014.06  2137.43  2159.38  2189.06
                             2550.06  4356.69  4437.41  4559.25  4598.94
                             4685.00  5574.69

 Zero-point correction=                           0.091103 (Hartree/Particle)
 Thermal correction to Energy=                    0.096897
 Thermal correction to Enthalpy=                  0.097841
 Thermal correction to Gibbs Free Energy=         0.062563
 Sum of electronic and zero-point Energies=           -268.228207
 Sum of electronic and thermal Energies=              -268.222413
 Sum of electronic and thermal Enthalpies=            -268.221468
 Sum of electronic and thermal Free Energies=         -268.256747

                     E (Thermal)             CV                S
                      KCal/Mol        Cal/Mol-Kelvin    Cal/Mol-Kelvin
 Total                   60.804             19.713             74.250
 Electronic               0.000              0.000              0.000
 Translational            0.889              2.981             38.822
 Rotational               0.889              2.981             25.444
 Vibrational             59.026             13.751              9.984
 Vibration     1          0.627              1.875              2.396
 Vibration     2          0.669              1.744              1.655
 Vibration     3          0.679              1.713              1.543
 Vibration     4          0.692              1.674              1.418
 Vibration     5          0.756              1.496              1.008
 Vibration     6          0.776              1.443              0.918

 Optimization completed.
    -- Stationary point found.
 Normal termination of Gaussian 16 at Sat Aug 31 12:57:17 2019.
