 Gaussian 16, Revision A.03,
 Gaussian 16:  EM64L-G16RevA.03 25-Dec-2016

 ----------------------------------------------------------------------
 #p m062x/cc-pVTZ Opt=(ModRedun,Loose,maxcycles=900) Int(Grid=SG1) scf=
 (maxcycle=900)
 ----------------------------------------------------------------------

 ------------------------------
 Gaussian input prepared by ASE
 ------------------------------
 Symbolic Z-matrix:
 Charge =  0 Multiplicity = 2

 SCF Done:  E(UM062X) =  -269.965599773     A.U. after   16 cycles
 SCF Done:  E(UM062X) =  -269.972686678     A.U. after   14 cycles
 SCF Done:  E(UM062X) =  -269.974122950     A.U. after   14 cycles
 SCF Done:  E(UM062X) =  -269.974698893     A.U. after   14 cycles
 SCF Done:  E(UM062X) =  -269.974931316     A.U. after   14 cycles
 SCF Done:  E(UM062X) =  -269.975353752     A.U. after   16 cycles
 SCF Done:  E(UM062X) =  -269.976285230     A.U. after   13 cycles
 SCF Done:  E(UM062X) =  -269.977907286     A.U. after   15 cycles
 SCF Done:  E(UM062X) =  -269.978666956     A.U. after   14 cycles
 SCF Done:  E(UM062X) =  -269.978828277     A.U. after   12 cycles
 SCF Done:  E(UM062X) =  -269.978891765     A.U. after   13 cycles
 SCF Done:  E(UM062X) =  -269.978886725     A.U. after   12 cycles
 SCF Done:  E(UM062X) =  -269.978900254     A.U. after   11 cycles
 SCF Done:  E(UM062X) =  -269.978915527     A.U. after   11 cycles
 SCF Done:  E(UM062X) =  -269.978915826     A.U. after   11 cycles
 Optimization completed.
    -- Stationary point found.

                         Standard orientation:
 ---------------------------------------------------------------------
 Center     Atomic      Atomic             Coordinates (Angstroms)
 Number     Number       Type             X           Y           Z
 ---------------------------------------------------------------------
      1          8           0        1.790857   -0.552074   -0.458998
      2          8           0        1.656431    0.345627    0.595291
      3          6           0       -1.654461    0.367435    0.063722
      4          6           0       -0.436052    1.168089   -0.302978
      5          6           0       -1.379914   -1.134181    0.097051
      6          1           0       -2.438298    0.573460   -0.674795
      7          1           0       -2.050891    0.697513    1.024348
      8          1           0        0.571277    0.764019    0.530917
      9          1           0        0.037725    0.898154   -1.240530
     10          1           0       -0.486705    2.239436   -0.130294
     11          1           0       -0.949799   -1.464464   -0.848896
     12          1           0       -2.289910   -1.703290    0.278198
     13          1           0       -0.670598   -1.368944    0.892460
     14          1           0        1.521463   -1.392363   -0.068524
 ---------------------------------------------------------------------

 The electronic state is 2-A.
 Alpha  occ. eigenvalues --  -19.68541 -19.68256 -10.55220 -10.54950 -10.53747
 Alpha  occ. eigenvalues --   -1.26567  -0.98946  -0.90102  -0.78701  -0.69058
 Alpha  occ. eigenvalues --   -0.62158  -0.57652  -0.54420  -0.53034  -0.51290
 Alpha  occ. eigenvalues --   -0.47772  -0.44368  -0.42394  -0.41319  -0.39063
 Alpha  occ. eigenvalues --   -0.37482  -0.28965
 Alpha virt. eigenvalues --    0.05757   0.07226   0.10763   0.11154   0.12079
 Alpha virt. eigenvalues --    0.13485   0.14270   0.16759   0.17269   0.20752
 Alpha virt. eigenvalues --    0.22737   0.25690   0.28040   0.28827   0.30931

  Beta  occ. eigenvalues --  -19.68433 -19.67332 -10.54975 -10.54676 -10.53730
  Beta  occ. eigenvalues --   -1.25016  -0.96657  -0.89288  -0.77432  -0.67862
  Beta  occ. eigenvalues --   -0.61013  -0.54354  -0.53716  -0.52242  -0.49626
  Beta  occ. eigenvalues --   -0.46954  -0.43425  -0.41780  -0.40862  -0.36112
  Beta  occ. eigenvalues --   -0.35901
  Beta virt. eigenvalues --   -0.06993   0.05847   0.07133   0.10797   0.11140
  Beta virt. eigenvalues --    0.12388   0.13516   0.14271   0.16978   0.17578
  Beta virt. eigenvalues --    0.20990   0.23469   0.26122   0.27976   0.28811

 Mulliken charges and spin densities:
               1          2
     1  O   -0.244899   0.031780
     2  O   -0.225378   0.369999
     3  C   -0.187762  -0.043843
     4  C   -0.386254   0.669842
     5  C   -0.396941   0.012730
     6  H    0.127848   0.044074
     7  H    0.128081   0.005827
     8  H    0.232731  -0.020927
     9  H    0.169151  -0.035890
    10  H    0.143693  -0.030468
    11  H    0.129905  -0.001735
    12  H    0.126907   0.000497
    13  H    0.113505   0.000195
    14  H    0.269411  -0.002081
 Sum of Mulliken charges =  -0.00000   1.00000

 Dipole moment (field-independent basis, Debye):
    X=             -2.4380    Y=             -0.8994    Z=              0.0741  Tot=              2.5997
 Quadrupole moment (field-independent basis, Debye-Ang):
   XX=            -36.9720   YY=            -29.3649   ZZ=            -33.6029
   XY=             -2.4737   XZ=              0.0437   YZ=             -0.3277

 Normal termination of Gaussian 16 at Thu Sep  5 15:53:52 2019.
