 Gaussian 16, Revision A.03,
 Gaussian 16:  EM64L-G16RevA.03 25-Dec-2016

 ----------------------------------------------------------------------
 #p m062x/cc-pVTZ opt=(ts,calcfc,noeigentest,maxcycles=900) freq scf=(m
 axcycle=900) IOP(7/33=1,2/16=3)
 ----------------------------------------------------------------------

 ------------------------------
 Gaussian input prepared by ASE
 ------------------------------
 Symbolic Z-matrix:
 Charge =  0 Multiplicity = 2

 SCF Done:  E(UM062X) =  -269.978650495     A.U. after   18 cycles
 SCF Done:  E(UM062X) =  -269.982446213     A.U. after   18 cycles
 SCF Done:  E(UM062X) =  -269.983629804     A.U. after   16 cycles
 SCF Done:  E(UM062X) =  -269.983782899     A.U. after   14 cycles
 SCF Done:  E(UM062X) =  -269.983792349     A.U. after   13 cycles
 SCF Done:  E(UM062X) =  -269.983791097     A.U. after   13 cycles
 SCF Done:  E(UM062X) =  -269.983793573     A.U. after   13 cycles
 SCF Done:  E(UM062X) =  -269.983793077     A.U. after   12 cycles
 SCF Done:  E(UM062X) =  -269.983794043     A.U. after   11 cycles
 SCF Done:  E(UM062X) =  -269.983727391     A.U. after   14 cycles
 SCF Done:  E(UM062X) =  -269.983901541     A.U. after   15 cycles
 SCF Done:  E(UM062X) =  -269.983882959     A.U. after   14 cycles
 SCF Done:  E(UM062X) =  -269.983935199     A.U. after   13 cycles
 SCF Done:  E(UM062X) =  -269.983939579     A.U. after   11 cycles
 SCF Done:  E(UM062X) =  -269.983929848     A.U. after   13 cycles
 SCF Done:  E(UM062X) =  -269.983939626     A.U. after   12 cycles
 SCF Done:  E(UM062X) =  -269.983940093     A.U. after   11 cycles
 SCF Done:  E(UM062X) =  -269.983940172     A.U. after    8 cycles
 SCF Done:  E(UM062X) =  -269.983940167     A.U. after    7 cycles
 Optimization completed.
    -- Stationary point found.
 Normal termination of Gaussian 16 at Fri Sep  6 14:20:46 2019.

 ----------------------------------------------------------------------
 #P Geom=AllCheck Guess=TCheck SCRF=Check Test GenChk UM062X/CC-pVTZ Fr
 eq
 ----------------------------------------------------------------------

 Structure from the checkpoint file:  "/scratch/harms.n/gauss_scrdir/Gau-11173.chk"
 ------------------------------
 Gaussian input prepared by ASE
 ------------------------------
 Charge =  0 Multiplicity = 2

                         Standard orientation:
 ---------------------------------------------------------------------
 Center     Atomic      Atomic             Coordinates (Angstroms)
 Number     Number       Type             X           Y           Z
 ---------------------------------------------------------------------
      1          8           0        1.972194    0.600615    0.295139
      2          8           0        1.539232   -0.333216   -0.637590
      3          6           0       -1.644672   -0.311415   -0.221440
      4          6           0       -0.583908   -1.167519    0.408790
      5          6           0       -1.421436    1.176003    0.026549
      6          1           0       -2.620217   -0.612096    0.179744
      7          1           0       -1.686444   -0.512023   -1.293737
      8          1           0        0.557659   -0.784984   -0.159931
      9          1           0       -0.365595   -0.949152    1.453110
     10          1           0       -0.624632   -2.231707    0.192722
     11          1           0       -1.397191    1.388901    1.096143
     12          1           0       -2.215700    1.772949   -0.419219
     13          1           0       -0.469561    1.494925   -0.396493
     14          1           0        2.630368    0.111582    0.803878
 ---------------------------------------------------------------------

 SCF Done:  E(UM062X) =  -269.983940167     A.U. after    1 cycles

 The electronic state is 2-A.
 Alpha  occ. eigenvalues --  -19.68808 -19.68637 -10.55255 -10.54146 -10.52088
 Alpha  occ. eigenvalues --   -1.26872  -0.98962  -0.89427  -0.78061  -0.68150
 Alpha  occ. eigenvalues --   -0.61966  -0.58515  -0.53482  -0.52251  -0.51445
 Alpha  occ. eigenvalues --   -0.47605  -0.43112  -0.41490  -0.40642  -0.39147
 Alpha  occ. eigenvalues --   -0.37599  -0.29699
 Alpha virt. eigenvalues --    0.06283   0.07565   0.10736   0.11458   0.12693
 Alpha virt. eigenvalues --    0.13804   0.15527   0.16288   0.18124   0.20388
 Alpha virt. eigenvalues --    0.24804   0.27455   0.29097   0.29602   0.30635

  Beta  occ. eigenvalues --  -19.68656 -19.67661 -10.54747 -10.54168 -10.52081
  Beta  occ. eigenvalues --   -1.25181  -0.96486  -0.88587  -0.76865  -0.67121
  Beta  occ. eigenvalues --   -0.60692  -0.55329  -0.52503  -0.50650  -0.50033
  Beta  occ. eigenvalues --   -0.46927  -0.42058  -0.41009  -0.40371  -0.36313
  Beta  occ. eigenvalues --   -0.35338
  Beta virt. eigenvalues --   -0.07880   0.06371   0.07476   0.10757   0.11559
  Beta virt. eigenvalues --    0.12621   0.13971   0.16023   0.16380   0.18237
  Beta virt. eigenvalues --    0.20747   0.25184   0.27781   0.29229   0.29584

 Mulliken charges and spin densities:
               1          2
     1  O   -0.241571   0.047846
     2  O   -0.216981   0.398572
     3  C   -0.208173  -0.043858
     4  C   -0.390729   0.631720
     5  C   -0.360005   0.011276
     6  H    0.128020   0.039201
     7  H    0.133957   0.008713
     8  H    0.234716  -0.024350
     9  H    0.144392  -0.034449
    10  H    0.139698  -0.029196
    11  H    0.110138  -0.001854
    12  H    0.115296  -0.000694
    13  H    0.143481  -0.000696
    14  H    0.267761  -0.002231
 Sum of Mulliken charges =  -0.00000   1.00000

 Dipole moment (field-independent basis, Debye):
    X=             -0.5639    Y=             -1.1493    Z=              1.5550  Tot=              2.0142
 Quadrupole moment (field-independent basis, Debye-Ang):
   XX=            -29.3535   YY=            -33.2820   ZZ=            -32.2621
   XY=             -0.8825   XZ=              4.2060   YZ=             -0.5206

  Exact polarizability:  74.356   7.924  53.014  -1.046  -0.555  45.796
 Approx polarizability:  74.361   9.269  59.193  -2.044   0.565  57.070

 ******    1 imaginary frequencies (negative Signs) ******

                      1                      2                      3
                      A                      A                      A
 Frequencies --  -1882.2452                62.8105                69.8236
 Red. masses --      1.1004                 4.3534                 2.0378
 Frc consts  --      2.2970                 0.0101                 0.0059
 IR Inten    --   1579.6552                 5.0837                 0.5559

                      4                      5                      6
                      A                      A                      A
 Frequencies --    129.1038               179.6397               262.6199
 Red. masses --      3.0285                 2.9389                 1.1778
 Frc consts  --      0.0297                 0.0559                 0.0479
 IR Inten    --     10.6168                 0.1622                 0.7063

                      7                      8                      9
                      A                      A                      A
 Frequencies --    366.2005               407.0793               557.3031
 Red. masses --      1.6955                 1.2120                 2.4584
 Frc consts  --      0.1340                 0.1183                 0.4499
 IR Inten    --     19.9932                83.2873                 5.6825

                     10                     11                     12
                      A                      A                      A
 Frequencies --    617.7252               754.0656               893.1253
 Red. masses --      1.6844                 1.1228                 2.0508
 Frc consts  --      0.3787                 0.3762                 0.9638
 IR Inten    --      0.6452                12.6821                 5.5098

                     13                     14                     15
                      A                      A                      A
 Frequencies --    918.4234               938.6548              1073.4326
 Red. masses --      1.1690                 1.1674                 2.9676
 Frc consts  --      0.5810                 0.6060                 2.0147
 IR Inten    --      5.6254                 5.6523                29.4125

                     16                     17                     18
                      A                      A                      A
 Frequencies --   1079.8484              1123.8904              1197.4423
 Red. masses --      2.8822                 1.5110                 1.6480
 Frc consts  --      1.9802                 1.1245                 1.3923
 IR Inten    --      8.0595                 8.6929                 0.7880

                     19                     20                     21
                      A                      A                      A
 Frequencies --   1202.8583              1288.6420              1365.5329
 Red. masses --      1.4848                 1.1765                 1.4522
 Frc consts  --      1.2657                 1.1510                 1.5954
 IR Inten    --      3.1186                 3.3360                 4.1149

                     22                     23                     24
                      A                      A                      A
 Frequencies --   1413.2497              1417.8935              1447.5622
 Red. masses --      1.1134                 1.2636                 1.0468
 Frc consts  --      1.3102                 1.4967                 1.2924
 IR Inten    --     53.5286                 1.8160                 1.6311

                     25                     26                     27
                      A                      A                      A
 Frequencies --   1457.6072              1474.6856              1503.2529
 Red. masses --      1.1498                 1.0747                 1.0489
 Frc consts  --      1.4393                 1.3770                 1.3966
 IR Inten    --      2.9979                 2.6503                 7.4686

                     28                     29                     30
                      A                      A                      A
 Frequencies --   1510.1329              3017.0245              3064.7251
 Red. masses --      1.0498                 1.0698                 1.0374
 Frc consts  --      1.4106                 5.7374                 5.7412
 IR Inten    --      6.3098                13.4076                16.3998

                     31                     32                     33
                      A                      A                      A
 Frequencies --   3082.4434              3097.9722              3134.3389
 Red. masses --      1.0856                 1.0569                 1.1010
 Frc consts  --      6.0775                 5.9763                 6.3727
 IR Inten    --     10.0354                15.2310                27.9826

                     34                     35                     36
                      A                      A                      A
 Frequencies --   3147.6102              3184.1701              3811.5083
 Red. masses --      1.1031                 1.1107                 1.0684
 Frc consts  --      6.4392                 6.6347                 9.1447
 IR Inten    --     12.5781                12.6117                65.9823

 - Thermochemistry -
 -------------------
 Temperature   298.150 Kelvin.  Pressure   1.00000 Atm.
 Atom     1 has atomic number  8 and mass  15.99491

 Molecular mass:    77.06025 amu.
 Principal axes and moments of inertia in atomic units:
                           1         2         3
     Eigenvalues --   259.69986 720.50240 862.20549
           X            0.99971  -0.01861   0.01533
           Y            0.01895   0.99957  -0.02241
           Z           -0.01490   0.02269   0.99963
 This molecule is an asymmetric top.
 Rotational symmetry number  1.
 Rotational temperatures (Kelvin)      0.33352     0.12021     0.10046
 Rotational constants (GHZ):           6.94933     2.50484     2.09317
    1 imaginary frequencies ignored.
 Zero-point vibrational energy     300576.1 (Joules/Mol)
                                   71.83941 (Kcal/Mol)
 Warning -- explicit consideration of   9 degrees of freedom as
           vibrations may cause significant error
 Vibrational temperatures:     90.37   100.46   185.75   258.46   377.85
          (Kelvin)            526.88   585.70   801.83   888.77  1084.93
                             1285.01  1321.41  1350.51  1544.43  1553.66
                             1617.03  1722.85  1730.64  1854.07  1964.70
                             2033.35  2040.03  2082.72  2097.17  2121.74
                             2162.85  2172.74  4340.83  4409.46  4434.95
                             4457.29  4509.61  4528.71  4581.31  5483.91

 Zero-point correction=                           0.114483 (Hartree/Particle)
 Thermal correction to Energy=                    0.122060
 Thermal correction to Enthalpy=                  0.123004
 Thermal correction to Gibbs Free Energy=         0.081949
 Sum of electronic and zero-point Energies=           -269.869457
 Sum of electronic and thermal Energies=              -269.861880
 Sum of electronic and thermal Enthalpies=            -269.860936
 Sum of electronic and thermal Free Energies=         -269.901991

                     E (Thermal)             CV                S
                      KCal/Mol        Cal/Mol-Kelvin    Cal/Mol-Kelvin
 Total                   76.594             24.863             86.408
 Electronic               0.000              0.000              1.377
 Translational            0.889              2.981             38.941
 Rotational               0.889              2.981             26.581
 Vibrational             74.816             18.902             19.508
 Vibration     1          0.597              1.972              4.367
 Vibration     2          0.598              1.969              4.158
 Vibration     3          0.612              1.924              2.959
 Vibration     4          0.629              1.867              2.332
 Vibration     5          0.670              1.741              1.644
 Vibration     6          0.739              1.542              1.096
 Vibration     7          0.772              1.455              0.937
 Vibration     8          0.913              1.124              0.529
 Vibration     9          0.977              0.994              0.420

 Optimization completed.
    -- Stationary point found.
 Normal termination of Gaussian 16 at Fri Sep  6 15:49:07 2019.
