 Gaussian 16, Revision A.03,
 Gaussian 16:  EM64L-G16RevA.03 25-Dec-2016

 ----------------------------------------------------------------------
 #p m062x/cc-pVTZ Opt=(ModRedun,Loose,maxcycles=900) Int(Grid=SG1) scf=
 (maxcycle=900)
 ----------------------------------------------------------------------

 ------------------------------
 Gaussian input prepared by ASE
 ------------------------------
 Symbolic Z-matrix:
 Charge =  0 Multiplicity = 2

 SCF Done:  E(UM062X) =  -269.965898555     A.U. after   16 cycles
 SCF Done:  E(UM062X) =  -269.972757494     A.U. after   14 cycles
 SCF Done:  E(UM062X) =  -269.973969541     A.U. after   14 cycles
 SCF Done:  E(UM062X) =  -269.974189769     A.U. after   14 cycles
 SCF Done:  E(UM062X) =  -269.974336257     A.U. after   14 cycles
 SCF Done:  E(UM062X) =  -269.974424988     A.U. after   12 cycles
 SCF Done:  E(UM062X) =  -269.974832065     A.U. after   13 cycles
 SCF Done:  E(UM062X) =  -269.974961477     A.U. after   16 cycles
 SCF Done:  E(UM062X) =  -269.976541255     A.U. after   14 cycles
 SCF Done:  E(UM062X) =  -269.977011829     A.U. after   14 cycles
 SCF Done:  E(UM062X) =  -269.978457020     A.U. after   14 cycles
 SCF Done:  E(UM062X) =  -269.978558460     A.U. after   13 cycles
 SCF Done:  E(UM062X) =  -269.978669987     A.U. after   12 cycles
 SCF Done:  E(UM062X) =  -269.978420338     A.U. after   13 cycles
 SCF Done:  E(UM062X) =  -269.978724103     A.U. after   13 cycles
 SCF Done:  E(UM062X) =  -269.978646357     A.U. after   12 cycles
 SCF Done:  E(UM062X) =  -269.978726033     A.U. after   12 cycles
 SCF Done:  E(UM062X) =  -269.978715776     A.U. after   11 cycles
 SCF Done:  E(UM062X) =  -269.978734282     A.U. after   12 cycles
 SCF Done:  E(UM062X) =  -269.978733238     A.U. after   11 cycles
 Optimization completed.
    -- Stationary point found.

                         Standard orientation:
 ---------------------------------------------------------------------
 Center     Atomic      Atomic             Coordinates (Angstroms)
 Number     Number       Type             X           Y           Z
 ---------------------------------------------------------------------
      1          8           0        1.923814    0.794469    0.319612
      2          8           0        2.027370   -0.474611   -0.242354
      3          6           0       -1.113156    0.134084   -0.476592
      4          6           0       -0.303114   -0.884795    0.269905
      5          6           0       -2.495946    0.324619    0.158988
      6          1           0       -1.231724   -0.170557   -1.517218
      7          1           0       -0.585718    1.088857   -0.471896
      8          1           0        0.937396   -0.880005   -0.308435
      9          1           0       -0.019591   -0.610428    1.281399
     10          1           0       -0.631755   -1.917591    0.174177
     11          1           0       -3.051991   -0.611738    0.159699
     12          1           0       -3.077239    1.064970   -0.388628
     13          1           0       -2.400878    0.660840    1.190855
     14          1           0        1.925328    1.373339   -0.451820
 ---------------------------------------------------------------------

 The electronic state is 2-A.
 Alpha  occ. eigenvalues --  -19.68646 -19.68203 -10.55235 -10.54628 -10.53554
 Alpha  occ. eigenvalues --   -1.26594  -0.98975  -0.89901  -0.78582  -0.68277
 Alpha  occ. eigenvalues --   -0.62239  -0.58690  -0.54782  -0.51966  -0.50193
 Alpha  occ. eigenvalues --   -0.46860  -0.45760  -0.41996  -0.40742  -0.39640
 Alpha  occ. eigenvalues --   -0.37312  -0.28902
 Alpha virt. eigenvalues --    0.05763   0.07527   0.10414   0.11023   0.12139
 Alpha virt. eigenvalues --    0.14198   0.15407   0.16147   0.17282   0.19150
 Alpha virt. eigenvalues --    0.22550   0.25351   0.28376   0.30024   0.30782

  Beta  occ. eigenvalues --  -19.68529 -19.67287 -10.54699 -10.54643 -10.53480
  Beta  occ. eigenvalues --   -1.25045  -0.96686  -0.89030  -0.77094  -0.67450
  Beta  occ. eigenvalues --   -0.60964  -0.55790  -0.53817  -0.50441  -0.49404
  Beta  occ. eigenvalues --   -0.46192  -0.44166  -0.41476  -0.40433  -0.36454
  Beta  occ. eigenvalues --   -0.35708
  Beta virt. eigenvalues --   -0.06995   0.05879   0.07527   0.10465   0.11078
  Beta virt. eigenvalues --    0.12456   0.14337   0.15625   0.16160   0.17522
  Beta virt. eigenvalues --    0.19453   0.23176   0.25650   0.28278   0.30164

 Mulliken charges and spin densities:
               1          2
     1  O   -0.247169   0.033506
     2  O   -0.229122   0.368557
     3  C   -0.223138  -0.039117
     4  C   -0.386076   0.677455
     5  C   -0.325703   0.034460
     6  H    0.128856   0.002829
     7  H    0.117031   0.006111
     8  H    0.246818  -0.021101
     9  H    0.171344  -0.035851
    10  H    0.138187  -0.032789
    11  H    0.109944  -0.001561
    12  H    0.112728   0.011595
    13  H    0.116887  -0.001920
    14  H    0.269412  -0.002175
 Sum of Mulliken charges =  -0.00000   1.00000

 Dipole moment (field-independent basis, Debye):
    X=             -2.0400    Y=              0.8235    Z=             -1.0749  Tot=              2.4485
 Quadrupole moment (field-independent basis, Debye-Ang):
   XX=            -37.2368   YY=            -29.9881   ZZ=            -32.7502
   XY=              2.8466   XZ=             -1.7706   YZ=             -1.6676

 Normal termination of Gaussian 16 at Thu Sep  5 19:34:02 2019.
