 Gaussian 16, Revision A.03,
 Gaussian 16:  EM64L-G16RevA.03 25-Dec-2016

 ----------------------------------------------------------------------
 #p m062x/cc-pVTZ Opt=(ModRedun,Loose,maxcycles=900) Int(Grid=SG1) scf=
 (maxcycle=900)
 ----------------------------------------------------------------------

 ------------------------------
 Gaussian input prepared by ASE
 ------------------------------
 Symbolic Z-matrix:
 Charge =  0 Multiplicity = 2

 SCF Done:  E(UM062X) =  -269.969208281     A.U. after   16 cycles
 SCF Done:  E(UM062X) =  -269.976246426     A.U. after   14 cycles
 SCF Done:  E(UM062X) =  -269.977998221     A.U. after   15 cycles
 SCF Done:  E(UM062X) =  -269.978541555     A.U. after   15 cycles
 SCF Done:  E(UM062X) =  -269.979162243     A.U. after   15 cycles
 SCF Done:  E(UM062X) =  -269.979544087     A.U. after   14 cycles
 SCF Done:  E(UM062X) =  -269.978884701     A.U. after   14 cycles
 SCF Done:  E(UM062X) =  -269.979724029     A.U. after   12 cycles
 SCF Done:  E(UM062X) =  -269.979750091     A.U. after   12 cycles
 SCF Done:  E(UM062X) =  -269.979757983     A.U. after   12 cycles
 SCF Done:  E(UM062X) =  -269.979762909     A.U. after   11 cycles
 Optimization completed.
    -- Stationary point found.

                         Standard orientation:
 ---------------------------------------------------------------------
 Center     Atomic      Atomic             Coordinates (Angstroms)
 Number     Number       Type             X           Y           Z
 ---------------------------------------------------------------------
      1          8           0       -1.728215   -0.665483    0.488753
      2          8           0       -1.723259    0.234229   -0.573872
      3          6           0        1.230255    0.156759    0.605733
      4          6           0        0.401092    1.246372   -0.004209
      5          6           0        1.798942   -0.803487   -0.431730
      6          1           0        0.632483   -0.386036    1.337915
      7          1           0        2.052248    0.616015    1.168533
      8          1           0       -0.623366    0.609749   -0.651172
      9          1           0       -0.148834    1.881757    0.679137
     10          1           0        0.867509    1.792197   -0.823917
     11          1           0        0.994639   -1.289751   -0.986743
     12          1           0        2.404140   -1.579468    0.033278
     13          1           0        2.422389   -0.276998   -1.153954
     14          1           0       -1.571151   -1.515293    0.059111
 ---------------------------------------------------------------------

 The electronic state is 2-A.
 Alpha  occ. eigenvalues --  -19.68714 -19.68273 -10.55191 -10.54388 -10.53416
 Alpha  occ. eigenvalues --   -1.26630  -0.99080  -0.89872  -0.78532  -0.68419
 Alpha  occ. eigenvalues --   -0.62179  -0.58752  -0.53076  -0.52808  -0.51356
 Alpha  occ. eigenvalues --   -0.48202  -0.43421  -0.42083  -0.41190  -0.39698
 Alpha  occ. eigenvalues --   -0.37446  -0.28685
 Alpha virt. eigenvalues --    0.05069   0.08218   0.10437   0.11131   0.12176
 Alpha virt. eigenvalues --    0.13944   0.15748   0.16230   0.17576   0.19663
 Alpha virt. eigenvalues --    0.23058   0.26336   0.27701   0.29001   0.29969

  Beta  occ. eigenvalues --  -19.68587 -19.67342 -10.54652 -10.54408 -10.53406
  Beta  occ. eigenvalues --   -1.25047  -0.96749  -0.89060  -0.77315  -0.67298
  Beta  occ. eigenvalues --   -0.60917  -0.55915  -0.52219  -0.51883  -0.49345
  Beta  occ. eigenvalues --   -0.47623  -0.42526  -0.41516  -0.40735  -0.36261
  Beta  occ. eigenvalues --   -0.35997
  Beta virt. eigenvalues --   -0.06797   0.05141   0.08105   0.10408   0.11130
  Beta virt. eigenvalues --    0.12428   0.14201   0.15903   0.16323   0.17764
  Beta virt. eigenvalues --    0.19870   0.23785   0.26490   0.27805   0.28993

 Mulliken charges and spin densities:
               1          2
     1  O   -0.245348   0.036763
     2  O   -0.223978   0.368178
     3  C   -0.257134  -0.041911
     4  C   -0.360470   0.659145
     5  C   -0.333271   0.004131
     6  H    0.152110   0.007725
     7  H    0.136282   0.047542
     8  H    0.230081  -0.017411
     9  H    0.160367  -0.036820
    10  H    0.135961  -0.027671
    11  H    0.102068   0.001807
    12  H    0.118327   0.000613
    13  H    0.114578  -0.000025
    14  H    0.270427  -0.002065
 Sum of Mulliken charges =  -0.00000   1.00000

 Dipole moment (field-independent basis, Debye):
    X=              2.1162    Y=             -0.9147    Z=             -0.1731  Tot=              2.3119
 Quadrupole moment (field-independent basis, Debye-Ang):
   XX=            -36.7905   YY=            -28.8304   ZZ=            -33.7153
   XY=              2.5797   XZ=              0.3046   YZ=              0.3098

 Normal termination of Gaussian 16 at Thu Sep  5 15:35:01 2019.
