 Gaussian 16, Revision A.03,
 Gaussian 16:  EM64L-G16RevA.03 25-Dec-2016

 ----------------------------------------------------------------------
 #p m062x/cc-pVTZ Opt=(ModRedun,Loose,maxcycles=900) Int(Grid=SG1) scf=
 (maxcycle=900)
 ----------------------------------------------------------------------

 ------------------------------
 Gaussian input prepared by ASE
 ------------------------------
 Symbolic Z-matrix:
 Charge =  0 Multiplicity = 2

 SCF Done:  E(UM062X) =  -269.970230448     A.U. after   16 cycles
 SCF Done:  E(UM062X) =  -269.976567566     A.U. after   14 cycles
 SCF Done:  E(UM062X) =  -269.977853250     A.U. after   14 cycles
 SCF Done:  E(UM062X) =  -269.978032256     A.U. after   14 cycles
 SCF Done:  E(UM062X) =  -269.978071462     A.U. after   13 cycles
 SCF Done:  E(UM062X) =  -269.978235656     A.U. after   14 cycles
 SCF Done:  E(UM062X) =  -269.979092123     A.U. after   15 cycles
 SCF Done:  E(UM062X) =  -269.978231760     A.U. after   14 cycles
 SCF Done:  E(UM062X) =  -269.971994304     A.U. after   15 cycles
 SCF Done:  E(UM062X) =  -269.972472898     A.U. after   15 cycles
 SCF Done:  E(UM062X) =  -269.979227121     A.U. after   11 cycles
 SCF Done:  E(UM062X) =  -269.979575557     A.U. after   13 cycles
 SCF Done:  E(UM062X) =  -269.979671615     A.U. after   13 cycles
 SCF Done:  E(UM062X) =  -269.979812292     A.U. after   12 cycles
 SCF Done:  E(UM062X) =  -269.979842434     A.U. after   12 cycles
 SCF Done:  E(UM062X) =  -269.979855612     A.U. after   12 cycles
 SCF Done:  E(UM062X) =  -269.979855577     A.U. after   11 cycles
 Optimization completed.
    -- Stationary point found.

                         Standard orientation:
 ---------------------------------------------------------------------
 Center     Atomic      Atomic             Coordinates (Angstroms)
 Number     Number       Type             X           Y           Z
 ---------------------------------------------------------------------
      1          8           0        1.773149   -0.644723   -0.489132
      2          8           0        1.655464    0.026898    0.723892
      3          6           0       -1.226085    0.180522   -0.620722
      4          6           0       -0.357583    1.196972    0.060277
      5          6           0       -1.898043   -0.769200    0.363755
      6          1           0       -0.627247   -0.386364   -1.333996
      7          1           0       -1.986107    0.707879   -1.209549
      8          1           0        0.570699    0.451063    0.735019
      9          1           0        0.261791    1.817687   -0.578572
     10          1           0       -0.827153    1.755035    0.869116
     11          1           0       -1.147400   -1.326047    0.924935
     12          1           0       -2.535239   -1.486105   -0.150000
     13          1           0       -2.513926   -0.222380    1.077953
     14          1           0        2.265945   -0.017939   -1.032841
 ---------------------------------------------------------------------

 The electronic state is 2-A.
 Alpha  occ. eigenvalues --  -19.68787 -19.68384 -10.55371 -10.54198 -10.52681
 Alpha  occ. eigenvalues --   -1.26766  -0.99129  -0.89638  -0.78297  -0.68211
 Alpha  occ. eigenvalues --   -0.61788  -0.59081  -0.53609  -0.51885  -0.51740
 Alpha  occ. eigenvalues --   -0.47900  -0.42886  -0.41796  -0.40822  -0.39819
 Alpha  occ. eigenvalues --   -0.37483  -0.28827
 Alpha virt. eigenvalues --    0.05379   0.08100   0.10285   0.11573   0.12315
 Alpha virt. eigenvalues --    0.14802   0.15196   0.16614   0.16920   0.19958
 Alpha virt. eigenvalues --    0.23150   0.26442   0.28271   0.29159   0.30288

  Beta  occ. eigenvalues --  -19.68662 -19.67444 -10.54829 -10.54218 -10.52672
  Beta  occ. eigenvalues --   -1.25178  -0.96798  -0.88775  -0.77083  -0.67148
  Beta  occ. eigenvalues --   -0.60430  -0.56318  -0.52849  -0.51105  -0.49334
  Beta  occ. eigenvalues --   -0.47297  -0.42035  -0.41257  -0.40427  -0.37142
  Beta  occ. eigenvalues --   -0.35253
  Beta virt. eigenvalues --   -0.06864   0.05558   0.08034   0.10354   0.11342
  Beta virt. eigenvalues --    0.12633   0.15075   0.15300   0.16861   0.17062
  Beta virt. eigenvalues --    0.20198   0.23820   0.26627   0.28383   0.29225

 Mulliken charges and spin densities:
               1          2
     1  O   -0.246714   0.036738
     2  O   -0.222801   0.372911
     3  C   -0.216191  -0.043680
     4  C   -0.405616   0.664835
     5  C   -0.328527   0.003862
     6  H    0.139503   0.007546
     7  H    0.130276   0.046135
     8  H    0.244508  -0.021857
     9  H    0.152358  -0.037519
    10  H    0.142159  -0.029356
    11  H    0.122426   0.001692
    12  H    0.112223   0.000583
    13  H    0.105421   0.000188
    14  H    0.270976  -0.002080
 Sum of Mulliken charges =  -0.00000   1.00000

 Dipole moment (field-independent basis, Debye):
    X=             -0.9232    Y=              1.5086    Z=             -1.4645  Tot=              2.2963
 Quadrupole moment (field-independent basis, Debye-Ang):
   XX=            -32.1226   YY=            -33.3868   ZZ=            -31.7596
   XY=              1.9533   XZ=             -4.0664   YZ=             -0.3062

 Normal termination of Gaussian 16 at Thu Sep  5 17:24:38 2019.
