 Gaussian 16, Revision A.03,
 Gaussian 16:  EM64L-G16RevA.03 25-Dec-2016

 ----------------------------------------------------------------------
 #p m062x/cc-pVTZ opt=(ts,calcfc,noeigentest,maxcycles=900) freq scf=(m
 axcycle=900) IOP(7/33=1,2/16=3)
 ----------------------------------------------------------------------

 ------------------------------
 Gaussian input prepared by ASE
 ------------------------------
 Symbolic Z-matrix:
 Charge =  0 Multiplicity = 2

 SCF Done:  E(UM062X) =  -269.979604618     A.U. after   18 cycles

  Exact polarizability:   0.000   0.000   0.000   0.000   0.000   0.000
 Approx polarizability:  70.660   5.675  59.661   2.448  -1.405  56.153

 SCF Done:  E(UM062X) =  -269.982737037     A.U. after   16 cycles
 SCF Done:  E(UM062X) =  -269.983205189     A.U. after   15 cycles
 SCF Done:  E(UM062X) =  -269.983264461     A.U. after   14 cycles
 SCF Done:  E(UM062X) =  -269.983273132     A.U. after   13 cycles
 SCF Done:  E(UM062X) =  -269.983279536     A.U. after   13 cycles
 SCF Done:  E(UM062X) =  -269.983280867     A.U. after   13 cycles
 SCF Done:  E(UM062X) =  -269.983281069     A.U. after   11 cycles
 SCF Done:  E(UM062X) =  -269.983281128     A.U. after   10 cycles
 SCF Done:  E(UM062X) =  -269.983281130     A.U. after    7 cycles
 SCF Done:  E(UM062X) =  -269.983281121     A.U. after   10 cycles
 SCF Done:  E(UM062X) =  -269.983281115     A.U. after   10 cycles
 SCF Done:  E(UM062X) =  -269.983281113     A.U. after    9 cycles
 SCF Done:  E(UM062X) =  -269.983281126     A.U. after    9 cycles
 SCF Done:  E(UM062X) =  -269.983281162     A.U. after    9 cycles
 SCF Done:  E(UM062X) =  -269.983281236     A.U. after    9 cycles
 SCF Done:  E(UM062X) =  -269.983281350     A.U. after   10 cycles
 SCF Done:  E(UM062X) =  -269.983281417     A.U. after   10 cycles
 Optimization completed.
    -- Stationary point found.

 The electronic state is 2-A.
 Alpha  occ. eigenvalues --  -19.68874 -19.68528 -10.55229 -10.53948 -10.53179
 Alpha  occ. eigenvalues --   -1.26900  -0.98958  -0.89562  -0.78494  -0.68009
 Alpha  occ. eigenvalues --   -0.62077  -0.58707  -0.54747  -0.52192  -0.50034
 Alpha  occ. eigenvalues --   -0.46743  -0.45695  -0.41653  -0.40299  -0.39581
 Alpha  occ. eigenvalues --   -0.37553  -0.29533
 Alpha virt. eigenvalues --    0.05897   0.07649   0.10349   0.11270   0.12714
 Alpha virt. eigenvalues --    0.13890   0.15687   0.16404   0.17138   0.19607
 Alpha virt. eigenvalues --    0.23782   0.26076   0.28614   0.29910   0.31174

  Beta  occ. eigenvalues --  -19.68714 -19.67567 -10.54714 -10.53972 -10.53113
  Beta  occ. eigenvalues --   -1.25216  -0.96494  -0.88709  -0.77072  -0.67265
  Beta  occ. eigenvalues --   -0.60629  -0.55261  -0.54186  -0.50374  -0.49282
  Beta  occ. eigenvalues --   -0.46198  -0.44103  -0.41170  -0.39905  -0.36290
  Beta  occ. eigenvalues --   -0.35572
  Beta virt. eigenvalues --   -0.07826   0.05953   0.07703   0.10396   0.11309
  Beta virt. eigenvalues --    0.12774   0.14167   0.15845   0.16640   0.17369
  Beta virt. eigenvalues --    0.19873   0.24104   0.26413   0.28659   0.30066

 Mulliken charges and spin densities:
               1          2
     1  O   -0.240141   0.049929
     2  O   -0.214160   0.393199
     3  C   -0.220031  -0.037243
     4  C   -0.399544   0.636300
     5  C   -0.335802   0.031506
     6  H    0.137554   0.003335
     7  H    0.139415   0.005347
     8  H    0.246615  -0.024023
     9  H    0.140470  -0.032796
    10  H    0.139429  -0.030583
    11  H    0.111700  -0.001488
    12  H    0.117892   0.010375
    13  H    0.110088  -0.001413
    14  H    0.266515  -0.002446
 Sum of Mulliken charges =  -0.00000   1.00000

 Dipole moment (field-independent basis, Debye):
    X=              1.2331    Y=              0.1214    Z=              1.7840  Tot=              2.1721
 Quadrupole moment (field-independent basis, Debye-Ang):
   XX=            -33.6523   YY=            -33.0082   ZZ=            -30.7904
   XY=              1.0658   XZ=             -5.1671   YZ=             -1.1113

 Normal termination of Gaussian 16 at Fri Sep  6 10:47:38 2019.

 ----------------------------------------------------------------------
 #P Geom=AllCheck Guess=TCheck SCRF=Check Test GenChk UM062X/CC-pVTZ Fr
 eq
 ----------------------------------------------------------------------

 Structure from the checkpoint file:  "/scratch/harms.n/gauss_scrdir/Gau-27709.chk"
 ------------------------------
 Gaussian input prepared by ASE
 ------------------------------
 Charge =  0 Multiplicity = 2

                         Standard orientation:
 ---------------------------------------------------------------------
 Center     Atomic      Atomic             Coordinates (Angstroms)
 Number     Number       Type             X           Y           Z
 ---------------------------------------------------------------------
      1          8           0       -2.093647   -0.808825    0.143869
      2          8           0       -1.978747    0.494847   -0.320451
      3          6           0        1.085930   -0.283422   -0.296023
      4          6           0        0.417479    0.941426    0.257576
      5          6           0        2.574899   -0.324981    0.063634
      6          1           0        0.968189   -0.305063   -1.380080
      7          1           0        0.588888   -1.173896    0.092052
      8          1           0       -0.874122    0.793577   -0.054264
      9          1           0        0.393400    1.014679    1.343263
     10          1           0        0.670807    1.884447   -0.221629
     11          1           0        3.095452    0.546548   -0.333646
     12          1           0        3.047032   -1.218114   -0.344663
     13          1           0        2.712260   -0.332612    1.145164
     14          1           0       -2.492598   -0.695878    1.015336
 ---------------------------------------------------------------------

 SCF Done:  E(UM062X) =  -269.983281417     A.U. after    1 cycles
