 Gaussian 16, Revision A.03,
 Gaussian 16:  EM64L-G16RevA.03 25-Dec-2016

 ----------------------------------------------------------------------
 #p m062x/cc-pVTZ Opt=(ModRedun,Loose,maxcycles=900) Int(Grid=SG1) scf=
 (maxcycle=900)
 ----------------------------------------------------------------------

 ------------------------------
 Gaussian input prepared by ASE
 ------------------------------
 Symbolic Z-matrix:
 Charge =  0 Multiplicity = 2

 SCF Done:  E(UM062X) =  -269.967800728     A.U. after   16 cycles
 SCF Done:  E(UM062X) =  -269.975381919     A.U. after   15 cycles
 SCF Done:  E(UM062X) =  -269.976648075     A.U. after   14 cycles
 SCF Done:  E(UM062X) =  -269.976928719     A.U. after   15 cycles
 SCF Done:  E(UM062X) =  -269.977120945     A.U. after   16 cycles
 SCF Done:  E(UM062X) =  -269.977411274     A.U. after   16 cycles
 SCF Done:  E(UM062X) =  -269.977785650     A.U. after   13 cycles
 SCF Done:  E(UM062X) =  -269.977765751     A.U. after   13 cycles
 SCF Done:  E(UM062X) =  -269.977903070     A.U. after   13 cycles
 SCF Done:  E(UM062X) =  -269.976949205     A.U. after   16 cycles
 SCF Done:  E(UM062X) =  -269.978191239     A.U. after   13 cycles
 SCF Done:  E(UM062X) =  -269.978791733     A.U. after   14 cycles
 SCF Done:  E(UM062X) =  -269.978829490     A.U. after   11 cycles
 SCF Done:  E(UM062X) =  -269.978810886     A.U. after   12 cycles
 SCF Done:  E(UM062X) =  -269.978821144     A.U. after   12 cycles
 SCF Done:  E(UM062X) =  -269.978835691     A.U. after   12 cycles
 SCF Done:  E(UM062X) =  -269.978825061     A.U. after   12 cycles
 SCF Done:  E(UM062X) =  -269.978831164     A.U. after   11 cycles
 SCF Done:  E(UM062X) =  -269.978837839     A.U. after   11 cycles
 SCF Done:  E(UM062X) =  -269.978840117     A.U. after   10 cycles
 Optimization completed.
    -- Stationary point found.

                         Standard orientation:
 ---------------------------------------------------------------------
 Center     Atomic      Atomic             Coordinates (Angstroms)
 Number     Number       Type             X           Y           Z
 ---------------------------------------------------------------------
      1          8           0       -2.283932   -0.125481   -0.410033
      2          8           0       -1.355654   -0.487983    0.564874
      3          6           0        1.683600    0.489379    0.176156
      4          6           0        0.342892    1.090836   -0.130892
      5          6           0        1.774919   -0.984938   -0.203319
      6          1           0        1.922928    0.625297    1.232509
      7          1           0        2.444115    1.055109   -0.375735
      8          1           0       -0.595781    0.394666    0.581573
      9          1           0        0.181392    2.110792    0.211403
     10          1           0       -0.050324    0.901397   -1.124961
     11          1           0        1.061119   -1.575294    0.367078
     12          1           0        2.774264   -1.376153   -0.022556
     13          1           0        1.541215   -1.120081   -1.259527
     14          1           0       -2.970702    0.320317    0.099821
 ---------------------------------------------------------------------

 The electronic state is 2-A.
 Alpha  occ. eigenvalues --  -19.68306 -19.68225 -10.55240 -10.54330 -10.52251
 Alpha  occ. eigenvalues --   -1.26344  -0.98926  -0.89366  -0.78077  -0.68221
 Alpha  occ. eigenvalues --   -0.61881  -0.57779  -0.53434  -0.52598  -0.51004
 Alpha  occ. eigenvalues --   -0.47340  -0.43101  -0.41585  -0.40616  -0.39049
 Alpha  occ. eigenvalues --   -0.37279  -0.28837
 Alpha virt. eigenvalues --    0.06679   0.07060   0.10986   0.11910   0.12085
 Alpha virt. eigenvalues --    0.13756   0.14693   0.17068   0.18431   0.20016
 Alpha virt. eigenvalues --    0.23997   0.26256   0.28503   0.29534   0.31138

  Beta  occ. eigenvalues --  -19.68201 -19.67310 -10.54699 -10.54357 -10.52241
  Beta  occ. eigenvalues --   -1.24801  -0.96670  -0.88502  -0.76776  -0.67116
  Beta  occ. eigenvalues --   -0.60741  -0.54513  -0.52665  -0.51068  -0.49959
  Beta  occ. eigenvalues --   -0.46552  -0.42178  -0.41041  -0.40322  -0.36032
  Beta  occ. eigenvalues --   -0.35746
  Beta virt. eigenvalues --   -0.06921   0.06705   0.06932   0.10998   0.11815
  Beta virt. eigenvalues --    0.12171   0.13823   0.14935   0.17241   0.18598
  Beta virt. eigenvalues --    0.20284   0.24631   0.26617   0.28484   0.29485

 Mulliken charges and spin densities:
               1          2
     1  O   -0.245532   0.031058
     2  O   -0.233642   0.362557
     3  C   -0.209456  -0.041021
     4  C   -0.377869   0.674167
     5  C   -0.340927   0.003262
     6  H    0.125129   0.009205
     7  H    0.125683   0.041020
     8  H    0.234451  -0.020228
     9  H    0.138129  -0.027394
    10  H    0.165864  -0.034471
    11  H    0.129154   0.003038
    12  H    0.110599  -0.000266
    13  H    0.113924   0.000565
    14  H    0.264492  -0.001492
 Sum of Mulliken charges =  -0.00000   1.00000

 Dipole moment (field-independent basis, Debye):
    X=              0.3147    Y=              1.9042    Z=              0.4536  Tot=              1.9826
 Quadrupole moment (field-independent basis, Debye-Ang):
   XX=            -27.8121   YY=            -32.9666   ZZ=            -33.4950
   XY=             -3.0931   XZ=             -1.4292   YZ=              0.5485

 Normal termination of Gaussian 16 at Thu Sep  5 20:47:49 2019.
