 Gaussian 16, Revision A.03,
 Gaussian 16:  EM64L-G16RevA.03 25-Dec-2016

 ----------------------------------------------------------------------
 #p m062x/cc-pVTZ opt=(ts,calcfc,noeigentest,maxcycles=900) freq scf=(m
 axcycle=900) IOP(7/33=1,2/16=3)
 ----------------------------------------------------------------------

 ------------------------------
 Gaussian input prepared by ASE
 ------------------------------
 Symbolic Z-matrix:
 Charge =  0 Multiplicity = 2

 SCF Done:  E(UM062X) =  -269.978543259     A.U. after   18 cycles
 SCF Done:  E(UM062X) =  -269.981332886     A.U. after   19 cycles
 SCF Done:  E(UM062X) =  -269.982603012     A.U. after   16 cycles
 SCF Done:  E(UM062X) =  -269.983074460     A.U. after   17 cycles
 SCF Done:  E(UM062X) =  -269.983175589     A.U. after   14 cycles
 SCF Done:  E(UM062X) =  -269.983188301     A.U. after   13 cycles
 SCF Done:  E(UM062X) =  -269.983205504     A.U. after   14 cycles
 SCF Done:  E(UM062X) =  -269.983230449     A.U. after   11 cycles
 SCF Done:  E(UM062X) =  -269.983334635     A.U. after   14 cycles
 SCF Done:  E(UM062X) =  -269.983382065     A.U. after   14 cycles
 SCF Done:  E(UM062X) =  -269.983051795     A.U. after   14 cycles
 SCF Done:  E(UM062X) =  -269.983149926     A.U. after   13 cycles
 SCF Done:  E(UM062X) =  -269.983356301     A.U. after   15 cycles
 SCF Done:  E(UM062X) =  -269.983379691     A.U. after   14 cycles
 SCF Done:  E(UM062X) =  -269.983399275     A.U. after   13 cycles
 SCF Done:  E(UM062X) =  -269.983365170     A.U. after   14 cycles
 SCF Done:  E(UM062X) =  -269.983396623     A.U. after   13 cycles
 SCF Done:  E(UM062X) =  -269.983398581     A.U. after   13 cycles
 SCF Done:  E(UM062X) =  -269.983400487     A.U. after   12 cycles
 Optimization completed.
    -- Stationary point found.
 Normal termination of Gaussian 16 at Fri Sep  6 11:39:59 2019.

 ----------------------------------------------------------------------
 #P Geom=AllCheck Guess=TCheck SCRF=Check Test GenChk UM062X/CC-pVTZ Fr
 eq
 ----------------------------------------------------------------------

 Structure from the checkpoint file:  "/scratch/harms.n/gauss_scrdir/Gau-27472.chk"
 ------------------------------
 Gaussian input prepared by ASE
 ------------------------------
 Charge =  0 Multiplicity = 2

                         Standard orientation:
 ---------------------------------------------------------------------
 Center     Atomic      Atomic             Coordinates (Angstroms)
 Number     Number       Type             X           Y           Z
 ---------------------------------------------------------------------
      1          8           0       -2.069063   -0.793954    0.243773
      2          8           0       -2.016688    0.526943   -0.181018
      3          6           0        1.041313   -0.336802   -0.158760
      4          6           0        0.427506    1.003724    0.120844
      5          6           0        2.561862   -0.315059    0.034957
      6          1           0        0.812279   -0.639858   -1.182873
      7          1           0        0.600568   -1.083841    0.503329
      8          1           0       -0.895420    0.830521   -0.030496
      9          1           0        0.493767    1.345978    1.150949
     10          1           0        0.646201    1.787258   -0.601063
     11          1           0        3.027849    0.409064   -0.633262
     12          1           0        2.993415   -1.294527   -0.169273
     13          1           0        2.815258   -0.038566    1.058334
     14          1           0       -1.991989   -1.291119   -0.579928
 ---------------------------------------------------------------------

 SCF Done:  E(UM062X) =  -269.983400487     A.U. after    1 cycles

 The electronic state is 2-A.
 Alpha  occ. eigenvalues --  -19.68918 -19.68485 -10.55272 -10.54539 -10.53533
 Alpha  occ. eigenvalues --   -1.26915  -0.98975  -0.89938  -0.78702  -0.68293
 Alpha  occ. eigenvalues --   -0.62289  -0.58657  -0.54982  -0.52311  -0.50325
 Alpha  occ. eigenvalues --   -0.46941  -0.45931  -0.42036  -0.40796  -0.39796
 Alpha  occ. eigenvalues --   -0.37512  -0.29466
 Alpha virt. eigenvalues --    0.05572   0.07443   0.10245   0.10877   0.12852
 Alpha virt. eigenvalues --    0.14075   0.14985   0.16269   0.17122   0.19323
 Alpha virt. eigenvalues --    0.24811   0.25850   0.28194   0.28734   0.30387

  Beta  occ. eigenvalues --  -19.68748 -19.67535 -10.54753 -10.54562 -10.53463
  Beta  occ. eigenvalues --   -1.25231  -0.96516  -0.89106  -0.77290  -0.67528
  Beta  occ. eigenvalues --   -0.60815  -0.55399  -0.54321  -0.50529  -0.49599
  Beta  occ. eigenvalues --   -0.46404  -0.44243  -0.41530  -0.40401  -0.36483
  Beta  occ. eigenvalues --   -0.35472
  Beta virt. eigenvalues --   -0.07820   0.05683   0.07458   0.10303   0.10916
  Beta virt. eigenvalues --    0.13042   0.14182   0.14983   0.16619   0.17342
  Beta virt. eigenvalues --    0.19581   0.25124   0.26367   0.28241   0.28893

 Mulliken charges and spin densities:
               1          2
     1  O   -0.238657   0.052721
     2  O   -0.214585   0.388637
     3  C   -0.258800  -0.034728
     4  C   -0.364096   0.628858
     5  C   -0.336490   0.032611
     6  H    0.129878   0.005039
     7  H    0.145273   0.005127
     8  H    0.245209  -0.021297
     9  H    0.141368  -0.030993
    10  H    0.136803  -0.030285
    11  H    0.112866  -0.001481
    12  H    0.116531   0.010359
    13  H    0.115546  -0.001716
    14  H    0.269153  -0.002852
 Sum of Mulliken charges =   0.00000   1.00000

 Dipole moment (field-independent basis, Debye):
    X=              2.1211    Y=             -0.8395    Z=             -1.0967  Tot=              2.5311
 Quadrupole moment (field-independent basis, Debye-Ang):
   XX=            -37.5383   YY=            -30.6244   ZZ=            -32.0754
   XY=              2.5977   XZ=              2.3680   YZ=              1.9708

  Exact polarizability:  80.239   6.239  53.134   1.568   0.801  42.722
 Approx polarizability:  76.112   6.140  63.006   1.183  -0.452  52.612

 ******    1 imaginary frequencies (negative Signs) ******

                      1                      2                      3
                      A                      A                      A
 Frequencies --  -1868.2720                38.3784                74.5049
 Red. masses --      1.1002                 2.5765                 2.6163
 Frc consts  --      2.2626                 0.0022                 0.0086
 IR Inten    --   1549.8777                 4.6463                 3.4028

                      4                      5                      6
                      A                      A                      A
 Frequencies --    102.7376               229.3757               249.0233
 Red. masses --      3.7994                 3.7660                 1.0780
 Frc consts  --      0.0236                 0.1167                 0.0394
 IR Inten    --      0.9818                 0.0922                 0.0266

                      7                      8                      9
                      A                      A                      A
 Frequencies --    349.0371               402.0670               521.6665
 Red. masses --      2.5107                 1.1569                 1.2744
 Frc consts  --      0.1802                 0.1102                 0.2043
 IR Inten    --      7.2054               115.8966                31.4315

                     10                     11                     12
                      A                      A                      A
 Frequencies --    588.9177               759.3703               907.4896
 Red. masses --      2.8528                 1.0705                 1.1311
 Frc consts  --      0.5829                 0.3637                 0.5488
 IR Inten    --      0.1969                 3.8196                 1.3972

                     13                     14                     15
                      A                      A                      A
 Frequencies --    912.1227               984.5409              1069.1624
 Red. masses --      1.6553                 1.7041                 2.5780
 Frc consts  --      0.8114                 0.9732                 1.7363
 IR Inten    --      5.5214                 4.9549                 6.5440

                     16                     17                     18
                      A                      A                      A
 Frequencies --   1082.4192              1119.5165              1166.8465
 Red. masses --      4.0092                 1.5642                 1.3946
 Frc consts  --      2.7676                 1.1551                 1.1187
 IR Inten    --     31.8815                15.7091                 3.8516

                     19                     20                     21
                      A                      A                      A
 Frequencies --   1218.8096              1313.1761              1342.3576
 Red. masses --      1.5487                 1.1130                 1.4360
 Frc consts  --      1.3554                 1.1308                 1.5245
 IR Inten    --      1.1499                 0.4945                 0.2588

                     22                     23                     24
                      A                      A                      A
 Frequencies --   1404.1390              1416.7387              1453.9777
 Red. masses --      1.2160                 1.1131                 1.0431
 Frc consts  --      1.4126                 1.3163                 1.2993
 IR Inten    --      0.3784                49.5528                 6.9190

                     25                     26                     27
                      A                      A                      A
 Frequencies --   1467.6837              1495.9892              1500.8161
 Red. masses --      1.1636                 1.0498                 1.0395
 Frc consts  --      1.4768                 1.3842                 1.3795
 IR Inten    --      2.6237                 2.3142                 7.6114

                     28                     29                     30
                      A                      A                      A
 Frequencies --   1512.4088              3058.2821              3061.9920
 Red. masses --      1.0936                 1.0571                 1.0369
 Frc consts  --      1.4739                 5.8252                 5.7281
 IR Inten    --      5.4883                 9.0419                29.0478

                     31                     32                     33
                      A                      A                      A
 Frequencies --   3098.5393              3102.0406              3136.6548
 Red. masses --      1.0965                 1.0581                 1.1035
 Frc consts  --      6.2028                 5.9989                 6.3966
 IR Inten    --      4.0081                10.1029                25.1543

                     34                     35                     36
                      A                      A                      A
 Frequencies --   3137.0879              3186.0269              3808.9087
 Red. masses --      1.1027                 1.1119                 1.0684
 Frc consts  --      6.3937                 6.6501                 9.1323
 IR Inten    --     21.2395                12.9947                52.1930

 - Thermochemistry -
 -------------------
 Temperature   298.150 Kelvin.  Pressure   1.00000 Atm.
 Atom     1 has atomic number  8 and mass  15.99491

 Molecular mass:    77.06025 amu.
 Principal axes and moments of inertia in atomic units:
                           1         2         3
     Eigenvalues --   168.79018 951.718921069.28568
           X            0.99999  -0.00140   0.00470
           Y            0.00122   0.99920   0.04000
           Z           -0.00475  -0.03999   0.99919
 This molecule is an asymmetric top.
 Rotational symmetry number  1.
 Rotational temperatures (Kelvin)      0.51315     0.09101     0.08100
 Rotational constants (GHZ):          10.69222     1.89630     1.68780
    1 imaginary frequencies ignored.
 Zero-point vibrational energy     300698.2 (Joules/Mol)
                                   71.86858 (Kcal/Mol)
 Warning -- explicit consideration of   9 degrees of freedom as
           vibrations may cause significant error
 Vibrational temperatures:     55.22   107.20   147.82   330.02   358.29
          (Kelvin)            502.19   578.48   750.56   847.32  1092.56
                             1305.68  1312.34  1416.53  1538.29  1557.36
                             1610.73  1678.83  1753.60  1889.37  1931.35
                             2020.24  2038.37  2091.95  2111.67  2152.39
                             2159.34  2176.02  4400.19  4405.52  4458.11
                             4463.14  4512.95  4513.57  4583.98  5480.17

 Zero-point correction=                           0.114530 (Hartree/Particle)
 Thermal correction to Energy=                    0.122191
 Thermal correction to Enthalpy=                  0.123136
 Thermal correction to Gibbs Free Energy=         0.081516
 Sum of electronic and zero-point Energies=           -269.868871
 Sum of electronic and thermal Energies=              -269.861209
 Sum of electronic and thermal Enthalpies=            -269.860265
 Sum of electronic and thermal Free Energies=         -269.901884

                     E (Thermal)             CV                S
                      KCal/Mol        Cal/Mol-Kelvin    Cal/Mol-Kelvin
 Total                   76.676             24.962             87.595
 Electronic               0.000              0.000              1.377
 Translational            0.889              2.981             38.941
 Rotational               0.889              2.981             26.643
 Vibrational             74.899             19.000             20.633
 Vibration     1          0.594              1.982              5.341
 Vibration     2          0.599              1.966              4.031
 Vibration     3          0.605              1.947              3.402
 Vibration     4          0.652              1.796              1.884
 Vibration     5          0.662              1.764              1.737
 Vibration     6          0.726              1.577              1.171
 Vibration     7          0.768              1.466              0.955
 Vibration     8          0.877              1.202              0.606
 Vibration     9          0.946              1.055              0.469

                           ! Non-Optimized Parameters !
 Normal termination of Gaussian 16 at Fri Sep  6 13:02:19 2019.
