 Gaussian 16, Revision A.03,
 Gaussian 16:  EM64L-G16RevA.03 25-Dec-2016

 ----------------------------------------------------------------------
 #p m062x/cc-pVTZ Opt=(ModRedun,Loose,maxcycles=900) Int(Grid=SG1) scf=
 (maxcycle=900)
 ----------------------------------------------------------------------

 ------------------------------
 Gaussian input prepared by ASE
 ------------------------------
 Symbolic Z-matrix:
 Charge =  0 Multiplicity = 2

 SCF Done:  E(UM062X) =  -269.964443635     A.U. after   16 cycles
 SCF Done:  E(UM062X) =  -269.972151546     A.U. after   14 cycles
 SCF Done:  E(UM062X) =  -269.973641004     A.U. after   15 cycles
 SCF Done:  E(UM062X) =  -269.973926628     A.U. after   15 cycles
 SCF Done:  E(UM062X) =  -269.974092588     A.U. after   12 cycles
 SCF Done:  E(UM062X) =  -269.974322043     A.U. after   14 cycles
 SCF Done:  E(UM062X) =  -269.974938649     A.U. after   16 cycles
 SCF Done:  E(UM062X) =  -269.957210767     A.U. after   17 cycles
 SCF Done:  E(UM062X) =  -269.976368763     A.U. after   14 cycles
 SCF Done:  E(UM062X) =  -269.977227725     A.U. after   14 cycles
 SCF Done:  E(UM062X) =  -269.978372449     A.U. after   16 cycles
 SCF Done:  E(UM062X) =  -269.980555620     A.U. after   11 cycles
 SCF Done:  E(UM062X) =  -269.980656832     A.U. after   12 cycles
 SCF Done:  E(UM062X) =  -269.980698773     A.U. after   12 cycles
 SCF Done:  E(UM062X) =  -269.980708715     A.U. after   12 cycles
 SCF Done:  E(UM062X) =  -269.980711082     A.U. after   12 cycles
 SCF Done:  E(UM062X) =  -269.980714062     A.U. after   11 cycles
 SCF Done:  E(UM062X) =  -269.980713727     A.U. after   12 cycles
 SCF Done:  E(UM062X) =  -269.980713892     A.U. after   11 cycles
 SCF Done:  E(UM062X) =  -269.980713271     A.U. after   11 cycles
 Optimization completed.
    -- Stationary point found.

                         Standard orientation:
 ---------------------------------------------------------------------
 Center     Atomic      Atomic             Coordinates (Angstroms)
 Number     Number       Type             X           Y           Z
 ---------------------------------------------------------------------
      1          8           0        1.941377    0.175666    0.579703
      2          8           0        1.356456    0.567157   -0.622667
      3          6           0       -1.141517   -0.347810    0.578131
      4          6           0       -0.346225   -1.141150   -0.411998
      5          6           0       -1.929475    0.781201   -0.074615
      6          1           0       -0.469194    0.045300    1.341687
      7          1           0       -1.828585   -1.028645    1.093126
      8          1           0        0.613038   -0.289163   -0.888754
      9          1           0        0.312394   -1.902671   -0.002869
     10          1           0       -0.877507   -1.453332   -1.309466
     11          1           0       -1.249140    1.479857   -0.559541
     12          1           0       -2.517336    1.330126    0.658240
     13          1           0       -2.611530    0.390839   -0.831138
     14          1           0        2.748504   -0.268339    0.293318
 ---------------------------------------------------------------------

 The electronic state is 2-A.
 Alpha  occ. eigenvalues --  -19.68662 -19.68360 -10.55356 -10.53697 -10.52201
 Alpha  occ. eigenvalues --   -1.26631  -0.99121  -0.89238  -0.78060  -0.67907
 Alpha  occ. eigenvalues --   -0.61823  -0.59099  -0.53039  -0.52032  -0.51003
 Alpha  occ. eigenvalues --   -0.47762  -0.42398  -0.41447  -0.40450  -0.39441
 Alpha  occ. eigenvalues --   -0.37523  -0.28973
 Alpha virt. eigenvalues --    0.06195   0.08084   0.10845   0.11740   0.12090
 Alpha virt. eigenvalues --    0.14402   0.15687   0.16523   0.18049   0.19878
 Alpha virt. eigenvalues --    0.22905   0.27042   0.28920   0.29602   0.31214

  Beta  occ. eigenvalues --  -19.68553 -19.67452 -10.54812 -10.53726 -10.52193
  Beta  occ. eigenvalues --   -1.25103  -0.96875  -0.88353  -0.76773  -0.66885
  Beta  occ. eigenvalues --   -0.60662  -0.56080  -0.52213  -0.50283  -0.49845
  Beta  occ. eigenvalues --   -0.47114  -0.41472  -0.40925  -0.40153  -0.36310
  Beta  occ. eigenvalues --   -0.36086
  Beta virt. eigenvalues --   -0.07033   0.06291   0.07968   0.10794   0.11610
  Beta virt. eigenvalues --    0.12402   0.14651   0.15737   0.16647   0.18122
  Beta virt. eigenvalues --    0.19982   0.23650   0.27301   0.28999   0.29580

 Mulliken charges and spin densities:
               1          2
     1  O   -0.244896   0.031059
     2  O   -0.233913   0.362215
     3  C   -0.219167  -0.045448
     4  C   -0.398066   0.688584
     5  C   -0.330522   0.003899
     6  H    0.158461   0.009017
     7  H    0.127438   0.036868
     8  H    0.241936  -0.023704
     9  H    0.154531  -0.032244
    10  H    0.140113  -0.031146
    11  H    0.124999   0.001284
    12  H    0.110374   0.000432
    13  H    0.100582   0.000419
    14  H    0.268130  -0.001235
 Sum of Mulliken charges =  -0.00000   1.00000

 Dipole moment (field-independent basis, Debye):
    X=              0.0574    Y=             -1.9128    Z=             -0.1463  Tot=              1.9192
 Quadrupole moment (field-independent basis, Debye-Ang):
   XX=            -27.8332   YY=            -33.2153   ZZ=            -33.5762
   XY=             -2.9915   XZ=              0.1641   YZ=              0.5482

 Normal termination of Gaussian 16 at Thu Sep  5 17:08:34 2019.
