 Gaussian 16, Revision A.03,
 Gaussian 16:  EM64L-G16RevA.03 25-Dec-2016

 ----------------------------------------------------------------------
 #p m062x/cc-pVTZ Opt=(ModRedun,Loose,maxcycles=900) Int(Grid=SG1) scf=
 (maxcycle=900)
 ----------------------------------------------------------------------

 ------------------------------
 Gaussian input prepared by ASE
 ------------------------------
 Symbolic Z-matrix:
 Charge =  0 Multiplicity = 2

 SCF Done:  E(UM062X) =  -269.968215161     A.U. after   16 cycles
 SCF Done:  E(UM062X) =  -269.975346029     A.U. after   14 cycles
 SCF Done:  E(UM062X) =  -269.976630415     A.U. after   14 cycles
 SCF Done:  E(UM062X) =  -269.976919347     A.U. after   14 cycles
 SCF Done:  E(UM062X) =  -269.976971408     A.U. after   13 cycles
 SCF Done:  E(UM062X) =  -269.977028283     A.U. after   12 cycles
 SCF Done:  E(UM062X) =  -269.859041115     A.U. after   15 cycles
 SCF Done:  E(UM062X) =  -269.976993363     A.U. after   15 cycles
 SCF Done:  E(UM062X) =  -269.977004033     A.U. after   13 cycles
 SCF Done:  E(UM062X) =  -269.977028794     A.U. after   10 cycles
 SCF Done:  E(UM062X) =  -269.978789470     A.U. after   12 cycles
 SCF Done:  E(UM062X) =  -269.978673283     A.U. after   14 cycles
 SCF Done:  E(UM062X) =  -269.978188189     A.U. after   14 cycles
 SCF Done:  E(UM062X) =  -269.978795608     A.U. after   13 cycles
 SCF Done:  E(UM062X) =  -269.978330554     A.U. after   14 cycles
 SCF Done:  E(UM062X) =  -269.978902336     A.U. after   12 cycles
 SCF Done:  E(UM062X) =  -269.978899804     A.U. after   12 cycles
 SCF Done:  E(UM062X) =  -269.978914897     A.U. after   12 cycles
 SCF Done:  E(UM062X) =  -269.978916338     A.U. after   10 cycles
 SCF Done:  E(UM062X) =  -269.978917339     A.U. after   11 cycles
 Optimization completed.
    -- Stationary point found.

                         Standard orientation:
 ---------------------------------------------------------------------
 Center     Atomic      Atomic             Coordinates (Angstroms)
 Number     Number       Type             X           Y           Z
 ---------------------------------------------------------------------
      1          8           0        1.794150    0.549298    0.459505
      2          8           0        1.653786   -0.343931   -0.598212
      3          6           0       -1.654419   -0.367392   -0.064738
      4          6           0       -0.436377   -1.167255    0.304657
      5          6           0       -1.380113    1.134328   -0.095844
      6          1           0       -2.440250   -0.574751    0.671271
      7          1           0       -2.048231   -0.696296   -1.027193
      8          1           0        0.569038   -0.763001   -0.531455
      9          1           0        0.036808   -0.895891    1.242193
     10          1           0       -0.486068   -2.239124    0.133833
     11          1           0       -0.957651    1.465228    0.853526
     12          1           0       -2.288860    1.703187   -0.285127
     13          1           0       -0.664553    1.368429   -0.885795
     14          1           0        1.521734    1.391194    0.073950
 ---------------------------------------------------------------------

 The electronic state is 2-A.
 Alpha  occ. eigenvalues --  -19.68544 -19.68254 -10.55223 -10.54957 -10.53757
 Alpha  occ. eigenvalues --   -1.26546  -0.98946  -0.90107  -0.78699  -0.69055
 Alpha  occ. eigenvalues --   -0.62155  -0.57640  -0.54414  -0.53038  -0.51286
 Alpha  occ. eigenvalues --   -0.47780  -0.44363  -0.42398  -0.41325  -0.39062
 Alpha  occ. eigenvalues --   -0.37487  -0.28961
 Alpha virt. eigenvalues --    0.05754   0.07217   0.10763   0.11148   0.12056
 Alpha virt. eigenvalues --    0.13479   0.14282   0.16742   0.17270   0.20747
 Alpha virt. eigenvalues --    0.22750   0.25673   0.28035   0.28822   0.30924

  Beta  occ. eigenvalues --  -19.68436 -19.67330 -10.54982 -10.54680 -10.53741
  Beta  occ. eigenvalues --   -1.24995  -0.96656  -0.89293  -0.77430  -0.67859
  Beta  occ. eigenvalues --   -0.61007  -0.54355  -0.53704  -0.52246  -0.49620
  Beta  occ. eigenvalues --   -0.46957  -0.43420  -0.41786  -0.40868  -0.36120
  Beta  occ. eigenvalues --   -0.35897
  Beta virt. eigenvalues --   -0.06986   0.05845   0.07126   0.10800   0.11132
  Beta virt. eigenvalues --    0.12366   0.13508   0.14282   0.16959   0.17582
  Beta virt. eigenvalues --    0.20986   0.23480   0.26108   0.27972   0.28804

 Mulliken charges and spin densities:
               1          2
     1  O   -0.245035   0.031690
     2  O   -0.225457   0.370043
     3  C   -0.188149  -0.043927
     4  C   -0.386129   0.670117
     5  C   -0.396671   0.012854
     6  H    0.127956   0.044081
     7  H    0.128164   0.005893
     8  H    0.232841  -0.020950
     9  H    0.169128  -0.036002
    10  H    0.143702  -0.030504
    11  H    0.130061  -0.001803
    12  H    0.126944   0.000436
    13  H    0.113128   0.000154
    14  H    0.269518  -0.002081
 Sum of Mulliken charges =  -0.00000   1.00000

 Dipole moment (field-independent basis, Debye):
    X=             -2.4429    Y=              0.9005    Z=             -0.0639  Tot=              2.6043
 Quadrupole moment (field-independent basis, Debye-Ang):
   XX=            -36.9836   YY=            -29.3666   ZZ=            -33.6040
   XY=              2.4718   XZ=             -0.0240   YZ=             -0.3129

 Normal termination of Gaussian 16 at Thu Sep  5 18:33:20 2019.
