 Gaussian 16, Revision A.03,
 Gaussian 16:  EM64L-G16RevA.03 25-Dec-2016

 ----------------------------------------------------------------------
 #p m062x/cc-pVTZ opt=(ts,calcfc,noeigentest,maxcycles=900) freq scf=(m
 axcycle=900) IOP(7/33=1,2/16=3)
 ----------------------------------------------------------------------

 ------------------------------
 Gaussian input prepared by ASE
 ------------------------------
 Symbolic Z-matrix:
 Charge =  0 Multiplicity = 2

 SCF Done:  E(UM062X) =  -269.980991876     A.U. after   18 cycles
 SCF Done:  E(UM062X) =  -269.984156201     A.U. after   17 cycles
 SCF Done:  E(UM062X) =  -269.984718330     A.U. after   16 cycles
 SCF Done:  E(UM062X) =  -269.984933408     A.U. after   15 cycles
 SCF Done:  E(UM062X) =  -269.985051843     A.U. after   15 cycles
 SCF Done:  E(UM062X) =  -269.985122380     A.U. after   14 cycles
 SCF Done:  E(UM062X) =  -269.984718921     A.U. after   15 cycles
 SCF Done:  E(UM062X) =  -269.984610540     A.U. after   17 cycles
 SCF Done:  E(UM062X) =  -269.984957152     A.U. after   14 cycles
 SCF Done:  E(UM062X) =  -269.985106253     A.U. after   14 cycles
 SCF Done:  E(UM062X) =  -269.985156307     A.U. after   10 cycles
 SCF Done:  E(UM062X) =  -269.985002740     A.U. after   15 cycles
 SCF Done:  E(UM062X) =  -269.985018011     A.U. after   14 cycles
 SCF Done:  E(UM062X) =  -269.984901851     A.U. after   14 cycles
 SCF Done:  E(UM062X) =  -269.985081235     A.U. after   14 cycles
 SCF Done:  E(UM062X) =  -269.985146278     A.U. after   14 cycles
 SCF Done:  E(UM062X) =  -269.985155563     A.U. after   13 cycles
 SCF Done:  E(UM062X) =  -269.985156313     A.U. after   10 cycles
 SCF Done:  E(UM062X) =  -269.985156405     A.U. after   10 cycles
 Optimization completed.
    -- Stationary point found.
 Normal termination of Gaussian 16 at Fri Sep  6 08:44:22 2019.

 ----------------------------------------------------------------------
 #P Geom=AllCheck Guess=TCheck SCRF=Check Test GenChk UM062X/CC-pVTZ Fr
 eq
 ----------------------------------------------------------------------

 Structure from the checkpoint file:  "/scratch/harms.n/gauss_scrdir/Gau-32861.chk"
 ------------------------------
 Gaussian input prepared by ASE
 ------------------------------
 Charge =  0 Multiplicity = 2

                         Standard orientation:
 ---------------------------------------------------------------------
 Center     Atomic      Atomic             Coordinates (Angstroms)
 Number     Number       Type             X           Y           Z
 ---------------------------------------------------------------------
      1          8           0       -1.713678   -0.668136    0.434947
      2          8           0       -1.612701    0.233024   -0.617411
      3          6           0        1.297972    0.146113    0.577971
      4          6           0        0.586866    1.305660   -0.055413
      5          6           0        1.525606   -1.002073   -0.397660
      6          1           0        0.726257   -0.206445    1.438804
      7          1           0        2.258822    0.497173    0.974178
      8          1           0       -0.603212    0.806348   -0.406425
      9          1           0        0.324555    2.133292    0.598451
     10          1           0        0.977784    1.630205   -1.017746
     11          1           0        0.571783   -1.379686   -0.764849
     12          1           0        2.059365   -1.823825    0.077231
     13          1           0        2.111551   -0.668930   -1.255446
     14          1           0       -2.278529   -0.205433    1.066119
 ---------------------------------------------------------------------

 SCF Done:  E(UM062X) =  -269.985156405     A.U. after    1 cycles

 The electronic state is 2-A.
 Alpha  occ. eigenvalues --  -19.69099 -19.68648 -10.55209 -10.54054 -10.52094
 Alpha  occ. eigenvalues --   -1.27041  -0.99088  -0.89458  -0.78028  -0.67974
 Alpha  occ. eigenvalues --   -0.62095  -0.59185  -0.53158  -0.52303  -0.51303
 Alpha  occ. eigenvalues --   -0.47654  -0.42840  -0.41458  -0.40600  -0.39873
 Alpha  occ. eigenvalues --   -0.37656  -0.29470
 Alpha virt. eigenvalues --    0.05613   0.08355   0.10540   0.11301   0.12885
 Alpha virt. eigenvalues --    0.14912   0.15064   0.16624   0.18022   0.20264
 Alpha virt. eigenvalues --    0.25225   0.27127   0.28825   0.29322   0.29528

  Beta  occ. eigenvalues --  -19.68932 -19.67683 -10.54702 -10.54074 -10.52088
  Beta  occ. eigenvalues --   -1.25350  -0.96605  -0.88614  -0.76844  -0.66961
  Beta  occ. eigenvalues --   -0.60801  -0.56103  -0.52408  -0.50901  -0.49320
  Beta  occ. eigenvalues --   -0.47084  -0.41779  -0.40975  -0.40286  -0.36559
  Beta  occ. eigenvalues --   -0.35656
  Beta virt. eigenvalues --   -0.07782   0.05675   0.08257   0.10550   0.11295
  Beta virt. eigenvalues --    0.12894   0.15144   0.15606   0.16704   0.18051
  Beta virt. eigenvalues --    0.20341   0.25662   0.27441   0.29064   0.29401

 Mulliken charges and spin densities:
               1          2
     1  O   -0.243037   0.051081
     2  O   -0.214991   0.392639
     3  C   -0.244447  -0.037151
     4  C   -0.388325   0.615522
     5  C   -0.345894   0.001795
     6  H    0.140730   0.008176
     7  H    0.137628   0.044500
     8  H    0.236328  -0.020738
     9  H    0.142914  -0.028507
    10  H    0.141825  -0.027375
    11  H    0.144635   0.002377
    12  H    0.113021  -0.000144
    13  H    0.107381   0.000293
    14  H    0.272231  -0.002468
 Sum of Mulliken charges =  -0.00000   1.00000

 Dipole moment (field-independent basis, Debye):
    X=              0.7147    Y=              1.1972    Z=              1.6831  Tot=              2.1856
 Quadrupole moment (field-independent basis, Debye-Ang):
   XX=            -31.3250   YY=            -33.1707   ZZ=            -31.4840
   XY=             -0.6622   XZ=             -4.3419   YZ=              0.0648

  Exact polarizability:  69.187   7.580  53.943  -0.075  -1.015  47.314
 Approx polarizability:  71.529   9.168  60.900   1.099  -2.881  58.107

 ******    1 imaginary frequencies (negative Signs) ******

                      1                      2                      3
                      A                      A                      A
 Frequencies --  -1851.9060                68.2481               109.2840
 Red. masses --      1.1000                 4.2480                 3.5588
 Frc consts  --      2.2228                 0.0117                 0.0250
 IR Inten    --   1276.0326                 6.4277                 4.0059

                      4                      5                      6
                      A                      A                      A
 Frequencies --    144.8807               216.5186               284.7799
 Red. masses --      1.8362                 1.6974                 1.5231
 Frc consts  --      0.0227                 0.0469                 0.0728
 IR Inten    --      0.1150                 3.5504                 5.4475

                      7                      8                      9
                      A                      A                      A
 Frequencies --    364.6575               414.8580               516.1299
 Red. masses --      1.4145                 1.8445                 1.2551
 Frc consts  --      0.1108                 0.1870                 0.1970
 IR Inten    --     61.3395                31.4677                14.3358

                     10                     11                     12
                      A                      A                      A
 Frequencies --    572.4990               756.6473               893.7811
 Red. masses --      3.0632                 1.1409                 2.2290
 Frc consts  --      0.5915                 0.3848                 1.0491
 IR Inten    --      5.8739                11.9590                 3.8781

                     13                     14                     15
                      A                      A                      A
 Frequencies --    928.3334               958.0247              1078.0905
 Red. masses --      1.1621                 1.1704                 9.4096
 Frc consts  --      0.5901                 0.6329                 6.4437
 IR Inten    --      2.5601                 7.8295                25.7051

                     16                     17                     18
                      A                      A                      A
 Frequencies --   1087.9926              1123.5628              1187.3025
 Red. masses --      1.9745                 1.2819                 1.5670
 Frc consts  --      1.3771                 0.9535                 1.3015
 IR Inten    --      4.9330                14.6953                 1.1882

                     19                     20                     21
                      A                      A                      A
 Frequencies --   1198.4726              1287.3512              1368.6077
 Red. masses --      1.6332                 1.1811                 1.4328
 Frc consts  --      1.3821                 1.1532                 1.5812
 IR Inten    --      2.3416                 3.4015                 2.3239

                     22                     23                     24
                      A                      A                      A
 Frequencies --   1409.8685              1417.2772              1452.2282
 Red. masses --      1.1168                 1.2706                 1.0419
 Frc consts  --      1.3079                 1.5037                 1.2946
 IR Inten    --     47.7994                 5.0083                 2.3144

                     25                     26                     27
                      A                      A                      A
 Frequencies --   1461.9745              1470.7603              1504.4535
 Red. masses --      1.1466                 1.0819                 1.0404
 Frc consts  --      1.4439                 1.3788                 1.3874
 IR Inten    --      8.7801                 3.3568                 8.2994

                     28                     29                     30
                      A                      A                      A
 Frequencies --   1508.3805              3015.7882              3063.9763
 Red. masses --      1.0545                 1.0704                 1.0373
 Frc consts  --      1.4136                 5.7360                 5.7376
 IR Inten    --      4.1745                13.4375                18.9073

                     31                     32                     33
                      A                      A                      A
 Frequencies --   3083.6588              3100.9482              3134.0820
 Red. masses --      1.0853                 1.0553                 1.1012
 Frc consts  --      6.0803                 5.9790                 6.3727
 IR Inten    --      8.7181                13.0509                22.0896

                     34                     35                     36
                      A                      A                      A
 Frequencies --   3146.5064              3184.3713              3812.0432
 Red. masses --      1.1030                 1.1114                 1.0684
 Frc consts  --      6.4338                 6.6400                 9.1473
 IR Inten    --     14.1829                13.6200                62.9512

 - Thermochemistry -
 -------------------
 Temperature   298.150 Kelvin.  Pressure   1.00000 Atm.
 Atom     1 has atomic number  8 and mass  15.99491

 Molecular mass:    77.06025 amu.
 Principal axes and moments of inertia in atomic units:
                           1         2         3
     Eigenvalues --   277.22880 660.08441 773.61681
           X            0.99953  -0.02372  -0.01927
           Y            0.02435   0.99915   0.03329
           Z            0.01847  -0.03374   0.99926
 This molecule is an asymmetric top.
 Rotational symmetry number  1.
 Rotational temperatures (Kelvin)      0.31243     0.13122     0.11196
 Rotational constants (GHZ):           6.50993     2.73411     2.33286
    1 imaginary frequencies ignored.
 Zero-point vibrational energy     301018.4 (Joules/Mol)
                                   71.94511 (Kcal/Mol)
 Warning -- explicit consideration of   9 degrees of freedom as
           vibrations may cause significant error
 Vibrational temperatures:     98.19   157.24   208.45   311.52   409.73
          (Kelvin)            524.66   596.89   742.60   823.70  1088.65
                             1285.95  1335.66  1378.38  1551.13  1565.38
                             1616.56  1708.26  1724.33  1852.21  1969.12
                             2028.49  2039.15  2089.43  2103.46  2116.10
                             2164.57  2170.22  4339.05  4408.38  4436.70
                             4461.57  4509.24  4527.12  4581.60  5484.68

 Zero-point correction=                           0.114652 (Hartree/Particle)
 Thermal correction to Energy=                    0.122065
 Thermal correction to Enthalpy=                  0.123009
 Thermal correction to Gibbs Free Energy=         0.082783
 Sum of electronic and zero-point Energies=           -269.870505
 Sum of electronic and thermal Energies=              -269.863091
 Sum of electronic and thermal Enthalpies=            -269.862147
 Sum of electronic and thermal Free Energies=         -269.902373

                     E (Thermal)             CV                S
                      KCal/Mol        Cal/Mol-Kelvin    Cal/Mol-Kelvin
 Total                   76.597             24.856             84.663
 Electronic               0.000              0.000              1.377
 Translational            0.889              2.981             38.941
 Rotational               0.889              2.981             26.451
 Vibrational             74.820             18.894             17.894
 Vibration     1          0.598              1.969              4.203
 Vibration     2          0.606              1.942              3.282
 Vibration     3          0.616              1.908              2.738
 Vibration     4          0.645              1.816              1.988
 Vibration     5          0.683              1.702              1.505
 Vibration     6          0.738              1.545              1.102
 Vibration     7          0.778              1.438              0.910
 Vibration     8          0.871              1.214              0.619
 Vibration     9          0.929              1.091              0.499

 Optimization completed.
    -- Stationary point found.
 Normal termination of Gaussian 16 at Fri Sep  6 10:55:04 2019.
