 Gaussian 16, Revision A.03,
 Gaussian 16:  EM64L-G16RevA.03 25-Dec-2016

 ----------------------------------------------------------------------
 #p m062x/cc-pVTZ opt=(calcfc,maxcycles=900,Tight) freq IOP(7/33=1,2/16
 =3) scf=(maxcycle=900)
 ----------------------------------------------------------------------

 ------------------------------
 Gaussian input prepared by ASE
 ------------------------------
 Symbolic Z-matrix:
 Charge =  0 Multiplicity = 1

 SCF Done:  E(RM062X) =  -268.309659775     A.U. after   13 cycles
 SCF Done:  E(RM062X) =  -268.316203504     A.U. after   14 cycles
 SCF Done:  E(RM062X) =  -268.316484284     A.U. after   14 cycles
 SCF Done:  E(RM062X) =  -268.317105361     A.U. after   12 cycles
 SCF Done:  E(RM062X) =  -268.317142227     A.U. after   10 cycles
 SCF Done:  E(RM062X) =  -268.317146356     A.U. after   10 cycles
 SCF Done:  E(RM062X) =  -268.317146481     A.U. after    8 cycles
 SCF Done:  E(RM062X) =  -268.317146489     A.U. after    5 cycles
 SCF Done:  E(RM062X) =  -268.317146488     A.U. after    3 cycles
 SCF Done:  E(RM062X) =  -268.317146490     A.U. after    3 cycles
 Optimization completed.
    -- Stationary point found.
 Normal termination of Gaussian 16 at Sun Sep 29 06:53:51 2019.

 ----------------------------------------------------------------------
 #P Geom=AllCheck Guess=TCheck SCRF=Check Test GenChk RM062X/CC-pVTZ Fr
 eq
 ----------------------------------------------------------------------

 Structure from the checkpoint file:  "/scratch/harms.n/gauss_scrdir/Gau-10345.chk"
 ------------------------------
 Gaussian input prepared by ASE
 ------------------------------
 Charge =  0 Multiplicity = 1

                         Standard orientation:
 ---------------------------------------------------------------------
 Center     Atomic      Atomic             Coordinates (Angstroms)
 Number     Number       Type             X           Y           Z
 ---------------------------------------------------------------------
      1          8           0       -1.145922   -0.443892    0.366079
      2          8           0        2.397111    0.149823   -0.141747
      3          6           0       -2.204580    0.217580   -0.295364
      4          6           0        0.042567    0.226396    0.276032
      5          6           0        1.149959   -0.394505   -0.102438
      6          1           0       -2.013402    0.283188   -1.369519
      7          1           0       -3.106561   -0.362330   -0.118802
      8          1           0       -2.342810    1.227920    0.102437
      9          1           0        0.029429    1.275165    0.570228
     10          1           0        1.137011   -1.433736   -0.397946
     11          1           0        2.359150    1.065520    0.149570
 ---------------------------------------------------------------------

 SCF Done:  E(RM062X) =  -268.317146490     A.U. after    1 cycles

 The electronic state is 1-A.
 Alpha  occ. eigenvalues --  -19.65098 -19.64209 -10.58865 -10.58491 -10.57823
 Alpha  occ. eigenvalues --   -1.18559  -1.17592  -0.85975  -0.77403  -0.69784
 Alpha  occ. eigenvalues --   -0.60827  -0.58814  -0.53963  -0.51710  -0.49409
 Alpha  occ. eigenvalues --   -0.47423  -0.44461  -0.41989  -0.36990  -0.27380
 Alpha virt. eigenvalues --    0.06386   0.07201   0.08187   0.11006   0.13117
 Alpha virt. eigenvalues --    0.14216   0.14715   0.17501   0.24219   0.27479
 Alpha virt. eigenvalues --    0.28751   0.29242   0.32968   0.35002   0.36071

 Mulliken charges:
               1
     1  O   -0.256733
     2  O   -0.337395
     3  C   -0.123727
     4  C   -0.079213
     5  C    0.007643
     6  H    0.084191
     7  H    0.111399
     8  H    0.078351
     9  H    0.100331
    10  H    0.164113
    11  H    0.251040
 Sum of Mulliken charges =   0.00000

 Dipole moment (field-independent basis, Debye):
    X=             -0.9554    Y=              1.9161    Z=             -0.3049  Tot=              2.1627
 Quadrupole moment (field-independent basis, Debye-Ang):
   XX=            -30.0290   YY=            -27.3497   ZZ=            -32.1262
   XY=              1.3572   XZ=              2.1847   YZ=              1.8516

  Exact polarizability:  61.403  -3.073  41.002  -1.337   3.078  33.111
 Approx polarizability:  64.275  -4.233  49.687  -3.544   3.338  40.699

                      1                      2                      3
                      A                      A                      A
 Frequencies --     87.9879               189.1548               209.3926
 Red. masses --      2.6010                 1.0974                 2.5188
 Frc consts  --      0.0119                 0.0231                 0.0651
 IR Inten    --      4.1578                 3.1374                10.1708

                      4                      5                      6
                      A                      A                      A
 Frequencies --    326.4662               394.9734               468.6625
 Red. masses --      1.7607                 2.0891                 3.6777
 Frc consts  --      0.1106                 0.1920                 0.4759
 IR Inten    --     33.7440                57.9084                 5.1021

                      7                      8                      9
                      A                      A                      A
 Frequencies --    558.0396               855.3210               954.6284
 Red. masses --      4.5120                 1.8119                 1.1508
 Frc consts  --      0.8278                 0.7810                 0.6179
 IR Inten    --     10.8994                19.1486                55.9250

                     10                     11                     12
                      A                      A                      A
 Frequencies --   1047.7769              1134.3420              1186.4534
 Red. masses --      3.5522                 2.3495                 1.3782
 Frc consts  --      2.2977                 1.7812                 1.1430
 IR Inten    --     25.5023               123.3999                50.6231

                     13                     14                     15
                      A                      A                      A
 Frequencies --   1192.1817              1266.0777              1287.9151
 Red. masses --      1.6036                 3.3193                 1.7978
 Frc consts  --      1.3429                 3.1349                 1.7570
 IR Inten    --     93.0631               241.3253                 3.9791

                     16                     17                     18
                      A                      A                      A
 Frequencies --   1325.4849              1384.7572              1484.3803
 Red. masses --      1.1976                 1.3211                 1.1756
 Frc consts  --      1.2397                 1.4926                 1.5262
 IR Inten    --      0.5636                90.0159                 2.8040

                     19                     20                     21
                      A                      A                      A
 Frequencies --   1498.7665              1514.6797              1786.0244
 Red. masses --      1.0449                 1.0478                 5.9430
 Frc consts  --      1.3829                 1.4163                11.1694
 IR Inten    --      7.2112                 8.8385                11.4842

                     22                     23                     24
                      A                      A                      A
 Frequencies --   3027.7670              3086.5823              3125.9300
 Red. masses --      1.0358                 1.1036                 1.0904
 Frc consts  --      5.5949                 6.1949                 6.2775
 IR Inten    --     52.9986                42.2829                31.2503

                     25                     26                     27
                      A                      A                      A
 Frequencies --   3160.4487              3237.7475              3869.2328
 Red. masses --      1.0996                 1.0935                 1.0656
 Frc consts  --      6.4714                 6.7537                 9.3990
 IR Inten    --     20.2668                 5.6077                47.3920

 - Thermochemistry -
 -------------------
 Temperature   298.150 Kelvin.  Pressure   1.00000 Atm.
 Atom     1 has atomic number  8 and mass  15.99491

 Molecular mass:    74.03678 amu.
 Principal axes and moments of inertia in atomic units:
                           1         2         3
     Eigenvalues --    71.43686 785.39132 808.93699
           X            0.99988  -0.00991   0.01218
           Y            0.00754   0.98334   0.18164
           Z           -0.01378  -0.18153   0.98329
 This molecule is an asymmetric top.
 Rotational symmetry number  1.
 Rotational temperatures (Kelvin)      1.21245     0.11028     0.10707
 Rotational constants (GHZ):          25.26344     2.29789     2.23100
 Zero-point vibrational energy     237226.5 (Joules/Mol)
                                   56.69850 (Kcal/Mol)
 Warning -- explicit consideration of   7 degrees of freedom as
           vibrations may cause significant error
 Vibrational temperatures:    126.59   272.15   301.27   469.71   568.28
          (Kelvin)            674.30   802.89  1230.62  1373.50  1507.52
                             1632.07  1707.04  1715.28  1821.60  1853.02
                             1907.08  1992.36  2135.69  2156.39  2179.29
                             2569.69  4356.28  4440.90  4497.52  4547.18
                             4658.40  5566.96

 Zero-point correction=                           0.090355 (Hartree/Particle)
 Thermal correction to Energy=                    0.096459
 Thermal correction to Enthalpy=                  0.097403
 Thermal correction to Gibbs Free Energy=         0.061150
 Sum of electronic and zero-point Energies=           -268.226792
 Sum of electronic and thermal Energies=              -268.220688
 Sum of electronic and thermal Enthalpies=            -268.219744
 Sum of electronic and thermal Free Energies=         -268.255996

                     E (Thermal)             CV                S
                      KCal/Mol        Cal/Mol-Kelvin    Cal/Mol-Kelvin
 Total                   60.529             19.963             76.300
 Electronic               0.000              0.000              0.000
 Translational            0.889              2.981             38.822
 Rotational               0.889              2.981             25.321
 Vibrational             58.751             14.001             12.157
 Vibration     1          0.601              1.958              3.704
 Vibration     2          0.633              1.855              2.236
 Vibration     3          0.642              1.826              2.049
 Vibration     4          0.710              1.623              1.278
 Vibration     5          0.762              1.481              0.981
 Vibration     6          0.826              1.320              0.741
 Vibration     7          0.914              1.122              0.528

                           ! Non-Optimized Parameters !
 Normal termination of Gaussian 16 at Sun Sep 29 07:27:36 2019.
