 Gaussian 16, Revision A.03,
 Gaussian 16:  EM64L-G16RevA.03 25-Dec-2016

 ----------------------------------------------------------------------
 #p m062x/cc-pVTZ opt=(calcfc,maxcycles=900,Tight) freq IOP(7/33=1,2/16
 =3) scf=(maxcycle=900)
 ----------------------------------------------------------------------

 ------------------------------
 Gaussian input prepared by ASE
 ------------------------------
 Symbolic Z-matrix:
 Charge =  0 Multiplicity = 1

 SCF Done:  E(RM062X) =  -346.935014605     A.U. after   13 cycles
 SCF Done:  E(RM062X) =  -346.945228296     A.U. after   14 cycles
 SCF Done:  E(RM062X) =  -346.915299662     A.U. after   13 cycles
 SCF Done:  E(RM062X) =  -346.948599451     A.U. after   12 cycles
 SCF Done:  E(RM062X) =  -346.917238776     A.U. after   14 cycles
 SCF Done:  E(RM062X) =  -346.946793655     A.U. after   12 cycles
 SCF Done:  E(RM062X) =  -346.948604009     A.U. after    7 cycles
 SCF Done:  E(RM062X) =  -346.949133099     A.U. after   10 cycles
 SCF Done:  E(RM062X) =  -346.949222517     A.U. after   10 cycles
 SCF Done:  E(RM062X) =  -346.949322079     A.U. after   11 cycles
 SCF Done:  E(RM062X) =  -346.949529646     A.U. after    9 cycles
 SCF Done:  E(RM062X) =  -346.949534558     A.U. after    9 cycles
 SCF Done:  E(RM062X) =  -346.949535327     A.U. after    7 cycles
 SCF Done:  E(RM062X) =  -346.949535432     A.U. after    7 cycles
 SCF Done:  E(RM062X) =  -346.949535526     A.U. after    6 cycles
 SCF Done:  E(RM062X) =  -346.949535501     A.U. after    5 cycles
 SCF Done:  E(RM062X) =  -346.949535505     A.U. after    4 cycles
 SCF Done:  E(RM062X) =  -346.949535501     A.U. after    3 cycles
 SCF Done:  E(RM062X) =  -346.949535506     A.U. after    5 cycles
 Optimization completed.
    -- Stationary point found.
 Normal termination of Gaussian 16 at Sat Sep 28 11:45:03 2019.

 ----------------------------------------------------------------------
 #P Geom=AllCheck Guess=TCheck SCRF=Check Test GenChk RM062X/CC-pVTZ Fr
 eq
 ----------------------------------------------------------------------

 Structure from the checkpoint file:  "/scratch/harms.n/gauss_scrdir/Gau-2590.chk"
 ------------------------------
 Gaussian input prepared by ASE
 ------------------------------
 Charge =  0 Multiplicity = 1

                         Standard orientation:
 ---------------------------------------------------------------------
 Center     Atomic      Atomic             Coordinates (Angstroms)
 Number     Number       Type             X           Y           Z
 ---------------------------------------------------------------------
      1          8           0       -0.078777   -0.681128    0.101443
      2          8           0        2.346344    0.325188    0.925839
      3          6           0       -1.295926   -0.066475   -0.336548
      4          6           0       -1.174544    1.445368   -0.275669
      5          6           0       -2.393958   -0.600678    0.556756
      6          6           0        0.969197   -0.562981   -0.777952
      7          6           0        2.133181   -0.099212   -0.344534
      8          1           0       -1.475660   -0.379046   -1.371990
      9          1           0       -1.019732    1.762723    0.756801
     10          1           0       -0.332162    1.789872   -0.874640
     11          1           0       -2.082360    1.918114   -0.649873
     12          1           0       -2.197129   -0.319342    1.591753
     13          1           0       -2.441780   -1.686311    0.496483
     14          1           0       -3.357823   -0.186638    0.263142
     15          1           0        0.811063   -0.896817   -1.795409
     16          1           0        3.006397   -0.044862   -0.975910
     17          1           0        1.520948    0.193702    1.409064
 ---------------------------------------------------------------------

 SCF Done:  E(RM062X) =  -346.949535506     A.U. after    1 cycles

 The electronic state is 1-A.
 Alpha  occ. eigenvalues --  -19.64448 -19.64208 -10.59928 -10.58483 -10.57298
 Alpha  occ. eigenvalues --  -10.53065 -10.52986  -1.19078  -1.16458  -0.89951
 Alpha  occ. eigenvalues --   -0.83090  -0.79072  -0.70572  -0.66669  -0.61273
 Alpha  occ. eigenvalues --   -0.58351  -0.53927  -0.52658  -0.50918  -0.46962
 Alpha  occ. eigenvalues --   -0.46169  -0.45783  -0.44998  -0.43892  -0.42445
 Alpha  occ. eigenvalues --   -0.39942  -0.36880  -0.27172
 Alpha virt. eigenvalues --    0.06206   0.07943   0.08233   0.10142   0.11279
 Alpha virt. eigenvalues --    0.11472   0.12453   0.14142   0.15717   0.16435
 Alpha virt. eigenvalues --    0.17801   0.18389   0.20272   0.22690   0.24780

 Mulliken charges:
               1
     1  O   -0.297769
     2  O   -0.350756
     3  C    0.022792
     4  C   -0.371530
     5  C   -0.337690
     6  C   -0.097201
     7  C    0.011916
     8  H    0.129570
     9  H    0.125991
    10  H    0.139480
    11  H    0.126751
    12  H    0.119402
    13  H    0.126985
    14  H    0.109560
    15  H    0.122636
    16  H    0.153537
    17  H    0.266325
 Sum of Mulliken charges =  -0.00000

 Dipole moment (field-independent basis, Debye):
    X=             -1.8740    Y=              0.3530    Z=             -1.0681  Tot=              2.1857
 Quadrupole moment (field-independent basis, Debye-Ang):
   XX=            -44.5985   YY=            -45.9386   ZZ=            -41.3020
   XY=             -0.9263   XZ=             -2.6560   YZ=              0.7828

  Exact polarizability:  83.837   3.021  58.267   0.374   2.599  61.810
 Approx polarizability:  89.838   5.123  69.373   4.052   3.955  77.372

                      1                      2                      3
                      A                      A                      A
 Frequencies --     31.2355                79.8496               191.8203
 Red. masses --      3.8033                 3.4961                 2.7330
 Frc consts  --      0.0022                 0.0131                 0.0592
 IR Inten    --      0.6819                 0.4955                 2.1516

                      4                      5                      6
                      A                      A                      A
 Frequencies --    212.6219               244.5646               303.9417
 Red. masses --      1.0978                 1.1646                 3.0880
 Frc consts  --      0.0292                 0.0410                 0.1681
 IR Inten    --      0.3973                 0.8337                 5.9608

                      7                      8                      9
                      A                      A                      A
 Frequencies --    355.7854               407.4017               487.2364
 Red. masses --      2.2545                 2.3845                 2.3681
 Frc consts  --      0.1681                 0.2332                 0.3312
 IR Inten    --      0.9334                 5.3495                 0.9170

                     10                     11                     12
                      A                      A                      A
 Frequencies --    506.4635               592.0257               734.5692
 Red. masses --      1.2876                 2.8738                 2.8535
 Frc consts  --      0.1946                 0.5935                 0.9072
 IR Inten    --     89.6023                19.4196                21.6798

                     13                     14                     15
                      A                      A                      A
 Frequencies --    785.9055               870.8238               926.4776
 Red. masses --      1.5200                 2.5549                 1.2980
 Frc consts  --      0.5531                 1.1415                 0.6565
 IR Inten    --     32.3609                 2.5309                 6.6740

                     16                     17                     18
                      A                      A                      A
 Frequencies --    934.9949               949.3076               968.1187
 Red. masses --      1.1754                 1.5096                 2.2275
 Frc consts  --      0.6054                 0.8016                 1.2301
 IR Inten    --      0.3426                 1.5971                 9.3511

                     19                     20                     21
                      A                      A                      A
 Frequencies --   1087.3965              1151.9705              1167.9870
 Red. masses --      3.0661                 2.3620                 2.1575
 Frc consts  --      2.1360                 1.8468                 1.7341
 IR Inten    --     63.3713               173.3838               106.6880

                     22                     23                     24
                      A                      A                      A
 Frequencies --   1181.6144              1206.5350              1248.2367
 Red. masses --      2.1479                 1.7995                 1.3901
 Frc consts  --      1.7669                 1.5434                 1.2761
 IR Inten    --     31.3088                37.5673                64.1101

                     25                     26                     27
                      A                      A                      A
 Frequencies --   1368.5603              1371.0772              1375.9360
 Red. masses --      1.4938                 1.2891                 1.2531
 Frc consts  --      1.6484                 1.4278                 1.3978
 IR Inten    --      0.2278                 5.2775                49.9525

                     28                     29                     30
                      A                      A                      A
 Frequencies --   1407.4608              1418.1538              1434.1554
 Red. masses --      1.4554                 1.3121                 1.3970
 Frc consts  --      1.6987                 1.5548                 1.6929
 IR Inten    --     25.9471                34.6920                49.6539

                     31                     32                     33
                      A                      A                      A
 Frequencies --   1483.3872              1488.5423              1495.8043
 Red. masses --      1.0588                 1.0484                 1.0557
 Frc consts  --      1.3727                 1.3687                 1.3917
 IR Inten    --      1.0720                 0.0416                 5.5968

                     34                     35                     36
                      A                      A                      A
 Frequencies --   1512.5860              1775.9172              3023.5579
 Red. masses --      1.0592                 6.2753                 1.0841
 Frc consts  --      1.4278                11.6608                 5.8393
 IR Inten    --      8.6224                57.9760                28.6656

                     37                     38                     39
                      A                      A                      A
 Frequencies --   3061.6627              3069.5297              3134.7168
 Red. masses --      1.0355                 1.0356                 1.1020
 Frc consts  --      5.7190                 5.7487                 6.3799
 IR Inten    --     10.2356                13.0544                 7.8744

                     40                     41                     42
                      A                      A                      A
 Frequencies --   3143.3648              3145.7054              3155.2560
 Red. masses --      1.1018                 1.1020                 1.1030
 Frc consts  --      6.4144                 6.4252                 6.4701
 IR Inten    --     18.6044                24.4764                16.1218

                     43                     44                     45
                      A                      A                      A
 Frequencies --   3202.1714              3255.4305              3819.3651
 Red. masses --      1.0896                 1.0984                 1.0645
 Frc consts  --      6.5826                 6.8584                 9.1487
 IR Inten    --      8.8353                 7.3445                51.7128

 - Thermochemistry -
 -------------------
 Temperature   298.150 Kelvin.  Pressure   1.00000 Atm.
 Atom     1 has atomic number  8 and mass  15.99491

 Molecular mass:   102.06808 amu.
 Principal axes and moments of inertia in atomic units:
                           1         2         3
     Eigenvalues --   348.915811222.425431277.14552
           X            0.99982  -0.00501  -0.01839
           Y            0.00450   0.99961  -0.02772
           Z            0.01852   0.02763   0.99945
 This molecule is an asymmetric top.
 Rotational symmetry number  1.
 Rotational temperatures (Kelvin)      0.24824     0.07085     0.06782
 Rotational constants (GHZ):           5.17243     1.47636     1.41311
 Zero-point vibrational energy     387406.0 (Joules/Mol)
                                   92.59225 (Kcal/Mol)
 Warning -- explicit consideration of  11 degrees of freedom as
           vibrations may cause significant error
 Vibrational temperatures:     44.94   114.89   275.99   305.92   351.87
          (Kelvin)            437.30   511.90   586.16   701.02   728.69
                              851.79  1056.88  1130.74  1252.92  1332.99
                             1345.25  1365.84  1392.91  1564.52  1657.43
                             1680.47  1700.08  1735.93  1795.93  1969.05
                             1972.67  1979.66  2025.02  2040.41  2063.43
                             2134.26  2141.68  2152.13  2176.27  2555.15
                             4350.23  4405.05  4416.37  4510.16  4522.60
                             4525.97  4539.71  4607.21  4683.84  5495.21

 Zero-point correction=                           0.147555 (Hartree/Particle)
 Thermal correction to Energy=                    0.155941
 Thermal correction to Enthalpy=                  0.156885
 Thermal correction to Gibbs Free Energy=         0.114106
 Sum of electronic and zero-point Energies=           -346.801980
 Sum of electronic and thermal Energies=              -346.793594
 Sum of electronic and thermal Enthalpies=            -346.792650
 Sum of electronic and thermal Free Energies=         -346.835430

                     E (Thermal)             CV                S
                      KCal/Mol        Cal/Mol-Kelvin    Cal/Mol-Kelvin
 Total                   97.855             29.677             90.037
 Electronic               0.000              0.000              0.000
 Translational            0.889              2.981             39.779
 Rotational               0.889              2.981             27.790
 Vibrational             96.077             23.715             22.468
 Vibration     1          0.594              1.983              5.749
 Vibration     2          0.600              1.963              3.895
 Vibration     3          0.634              1.851              2.210
 Vibration     4          0.644              1.822              2.021
 Vibration     5          0.660              1.772              1.769
 Vibration     6          0.695              1.666              1.395
 Vibration     7          0.731              1.563              1.140
 Vibration     8          0.772              1.454              0.936
 Vibration     9          0.843              1.278              0.691
 Vibration    10          0.862              1.236              0.642
 Vibration    11          0.950              1.049              0.464

                           ! Non-Optimized Parameters !
 Normal termination of Gaussian 16 at Sat Sep 28 13:36:33 2019.
