 Gaussian 16, Revision A.03,
 Gaussian 16:  EM64L-G16RevA.03 25-Dec-2016

 ----------------------------------------------------------------------
 #p m062x/cc-pVTZ opt=(calcfc,maxcycles=900,Tight) freq IOP(7/33=1,2/16
 =3) scf=(maxcycle=900)
 ----------------------------------------------------------------------

 ------------------------------
 Gaussian input prepared by ASE
 ------------------------------
 Symbolic Z-matrix:
 Charge =  0 Multiplicity = 1

 SCF Done:  E(RM062X) =  -346.926019841     A.U. after   13 cycles
 SCF Done:  E(RM062X) =  -346.936205834     A.U. after   14 cycles
 SCF Done:  E(RM062X) =  -346.903349687     A.U. after   13 cycles
 SCF Done:  E(RM062X) =  -346.939850286     A.U. after   12 cycles
 SCF Done:  E(RM062X) =  -346.912437483     A.U. after   14 cycles
 SCF Done:  E(RM062X) =  -346.937261982     A.U. after   14 cycles
 SCF Done:  E(RM062X) =  -346.939892296     A.U. after   11 cycles
 SCF Done:  E(RM062X) =  -346.940391156     A.U. after   11 cycles
 SCF Done:  E(RM062X) =  -346.940523315     A.U. after   11 cycles
 SCF Done:  E(RM062X) =  -346.940583165     A.U. after   10 cycles
 SCF Done:  E(RM062X) =  -346.940683271     A.U. after   10 cycles
 SCF Done:  E(RM062X) =  -346.940683718     A.U. after    9 cycles
 SCF Done:  E(RM062X) =  -346.940683965     A.U. after    8 cycles
 SCF Done:  E(RM062X) =  -346.940684001     A.U. after    8 cycles
 SCF Done:  E(RM062X) =  -346.940684007     A.U. after    5 cycles
 SCF Done:  E(RM062X) =  -346.940684007     A.U. after    3 cycles
 SCF Done:  E(RM062X) =  -346.940684007     A.U. after    4 cycles
 SCF Done:  E(RM062X) =  -346.940684008     A.U. after    4 cycles
 SCF Done:  E(RM062X) =  -346.940684008     A.U. after    3 cycles
 Optimization completed.
    -- Stationary point found.
 Normal termination of Gaussian 16 at Sun Sep 29 12:18:26 2019.

 ----------------------------------------------------------------------
 #P Geom=AllCheck Guess=TCheck SCRF=Check Test GenChk RM062X/CC-pVTZ Fr
 eq
 ----------------------------------------------------------------------

 Structure from the checkpoint file:  "/scratch/harms.n/gauss_scrdir/Gau-42208.chk"
 ------------------------------
 Gaussian input prepared by ASE
 ------------------------------
 Charge =  0 Multiplicity = 1

                         Standard orientation:
 ---------------------------------------------------------------------
 Center     Atomic      Atomic             Coordinates (Angstroms)
 Number     Number       Type             X           Y           Z
 ---------------------------------------------------------------------
      1          8           0       -0.288456   -0.673691    0.167653
      2          8           0        3.192532    0.187072   -0.167531
      3          6           0       -1.420902    0.030455   -0.343917
      4          6           0       -1.423252    1.468489    0.143624
      5          6           0       -2.642608   -0.738195    0.110571
      6          6           0        0.905606   -0.290413   -0.367519
      7          6           0        1.989738   -0.172876    0.382111
      8          1           0       -1.362220    0.016073   -1.439525
      9          1           0       -0.515704    1.986423   -0.164957
     10          1           0       -2.282310    2.005607   -0.258007
     11          1           0       -1.476891    1.486930    1.232946
     12          1           0       -2.686143   -0.748229    1.199902
     13          1           0       -2.599691   -1.766559   -0.243427
     14          1           0       -3.549852   -0.270197   -0.269658
     15          1           0        0.935783   -0.119263   -1.440207
     16          1           0        1.948229   -0.336755    1.452131
     17          1           0        3.904705   -0.145842    0.380606
 ---------------------------------------------------------------------

 SCF Done:  E(RM062X) =  -346.940684008     A.U. after    1 cycles

 The electronic state is 1-A.
 Alpha  occ. eigenvalues --  -19.64202 -19.63591 -10.59268 -10.57916 -10.57236
 Alpha  occ. eigenvalues --  -10.52476 -10.52402  -1.17820  -1.16852  -0.89575
 Alpha  occ. eigenvalues --   -0.82978  -0.78494  -0.68862  -0.66033  -0.61661
 Alpha  occ. eigenvalues --   -0.57052  -0.54355  -0.52841  -0.50978  -0.47276
 Alpha  occ. eigenvalues --   -0.45633  -0.45215  -0.43477  -0.43226  -0.41030
 Alpha  occ. eigenvalues --   -0.39411  -0.36605  -0.26515
 Alpha virt. eigenvalues --    0.06206   0.07430   0.07730   0.09786   0.11419
 Alpha virt. eigenvalues --    0.12506   0.13491   0.14543   0.15516   0.16781
 Alpha virt. eigenvalues --    0.18312   0.18700   0.20735   0.23839   0.25917

 Mulliken charges:
               1
     1  O   -0.263207
     2  O   -0.331369
     3  C    0.012068
     4  C   -0.357213
     5  C   -0.341127
     6  C   -0.050415
     7  C   -0.025552
     8  H    0.126383
     9  H    0.133806
    10  H    0.121005
    11  H    0.124284
    12  H    0.121353
    13  H    0.124925
    14  H    0.106568
    15  H    0.133001
    16  H    0.113330
    17  H    0.252160
 Sum of Mulliken charges =   0.00000

 Dipole moment (field-independent basis, Debye):
    X=             -0.0721    Y=              0.2053    Z=              0.5495  Tot=              0.5910
 Quadrupole moment (field-independent basis, Debye-Ang):
   XX=            -36.0972   YY=            -46.2074   ZZ=            -41.9997
   XY=             -2.9826   XZ=              5.6861   YZ=             -0.0548

  Exact polarizability:  91.072   1.040  57.219   5.530  -0.523  60.664
 Approx polarizability:  92.692   1.578  67.311   7.472  -1.338  76.748

                      1                      2                      3
                      A                      A                      A
 Frequencies --     64.5338                79.8172               133.7285
 Red. masses --      2.8177                 2.5801                 2.0749
 Frc consts  --      0.0069                 0.0097                 0.0219
 IR Inten    --      9.3442                 2.0633                51.2777

                      4                      5                      6
                      A                      A                      A
 Frequencies --    198.1442               210.8102               255.3521
 Red. masses --      1.3476                 1.0485                 1.1170
 Frc consts  --      0.0312                 0.0275                 0.0429
 IR Inten    --     69.7129                 7.2206                 0.9658

                      7                      8                      9
                      A                      A                      A
 Frequencies --    329.3764               335.1057               369.4598
 Red. masses --      3.2464                 2.7717                 3.4643
 Frc consts  --      0.2075                 0.1834                 0.2786
 IR Inten    --      2.2160                 4.0100                 7.8691

                     10                     11                     12
                      A                      A                      A
 Frequencies --    470.2999               480.7478               595.8244
 Red. masses --      3.2074                 2.6763                 4.1180
 Frc consts  --      0.4180                 0.3644                 0.8613
 IR Inten    --      1.0219                 2.7459                 3.0784

                     13                     14                     15
                      A                      A                      A
 Frequencies --    850.8552               873.7624               935.2887
 Red. masses --      2.3202                 2.0985                 1.1194
 Frc consts  --      0.9897                 0.9439                 0.5769
 IR Inten    --      1.4465                 2.8481                47.7676

                     16                     17                     18
                      A                      A                      A
 Frequencies --    937.1296               951.4227               973.5790
 Red. masses --      1.1636                 1.4334                 2.2097
 Frc consts  --      0.6021                 0.7645                 1.2340
 IR Inten    --     19.1264                 1.3389                14.4193

                     19                     20                     21
                      A                      A                      A
 Frequencies --   1144.5629              1167.0732              1184.5505
 Red. masses --      2.0505                 2.0465                 2.0369
 Frc consts  --      1.5827                 1.6424                 1.6840
 IR Inten    --     17.4029                13.1636                30.0023

                     22                     23                     24
                      A                      A                      A
 Frequencies --   1201.3202              1217.9901              1251.4507
 Red. masses --      2.2866                 2.9513                 1.5934
 Frc consts  --      1.9443                 2.5796                 1.4703
 IR Inten    --    124.6919               491.6807                 2.6220

                     25                     26                     27
                      A                      A                      A
 Frequencies --   1333.2608              1357.1845              1374.2153
 Red. masses --      1.3086                 1.4074                 1.2989
 Frc consts  --      1.3705                 1.5274                 1.4452
 IR Inten    --     15.1300                41.0722                 1.2027

                     28                     29                     30
                      A                      A                      A
 Frequencies --   1397.7342              1408.9756              1421.3472
 Red. masses --      1.2686                 1.4600                 1.3381
 Frc consts  --      1.4602                 1.7077                 1.5927
 IR Inten    --      5.0512                24.8209                22.9488

                     31                     32                     33
                      A                      A                      A
 Frequencies --   1482.8607              1489.5452              1495.7723
 Red. masses --      1.0575                 1.0498                 1.0543
 Frc consts  --      1.3700                 1.3724                 1.3898
 IR Inten    --      0.8112                 0.1576                 6.3651

                     34                     35                     36
                      A                      A                      A
 Frequencies --   1513.4553              1803.9283              3015.2852
 Red. masses --      1.0580                 5.5846                 1.0837
 Frc consts  --      1.4279                10.7073                 5.8053
 IR Inten    --      5.5981                 0.1936                35.1293

                     37                     38                     39
                      A                      A                      A
 Frequencies --   3062.6343              3070.3000              3137.4427
 Red. masses --      1.0349                 1.0353                 1.1026
 Frc consts  --      5.7193                 5.7499                 6.3946
 IR Inten    --     10.5727                13.8397                 6.2960

                     40                     41                     42
                      A                      A                      A
 Frequencies --   3143.0677              3146.1803              3154.5911
 Red. masses --      1.1024                 1.1019                 1.1029
 Frc consts  --      6.4164                 6.4260                 6.4666
 IR Inten    --     13.4916                33.6098                18.3697

                     43                     44                     45
                      A                      A                      A
 Frequencies --   3158.8760              3196.6934              3912.2478
 Red. masses --      1.0904                 1.0935                 1.0668
 Frc consts  --      6.4107                 6.5836                 9.6201
 IR Inten    --     18.3048                10.5464               112.1130

 - Thermochemistry -
 -------------------
 Temperature   298.150 Kelvin.  Pressure   1.00000 Atm.
 Atom     1 has atomic number  8 and mass  15.99491

 Molecular mass:   102.06808 amu.
 Principal axes and moments of inertia in atomic units:
                           1         2         3
     Eigenvalues --   255.300101520.089591663.03217
           X            0.99997  -0.00493   0.00529
           Y            0.00490   0.99998   0.00487
           Z           -0.00532  -0.00485   0.99997
 This molecule is an asymmetric top.
 Rotational symmetry number  1.
 Rotational temperatures (Kelvin)      0.33926     0.05698     0.05208
 Rotational constants (GHZ):           7.06910     1.18726     1.08521
 Zero-point vibrational energy     384526.3 (Joules/Mol)
                                   91.90400 (Kcal/Mol)
 Warning -- explicit consideration of  12 degrees of freedom as
           vibrations may cause significant error
 Vibrational temperatures:     92.85   114.84   192.41   285.09   303.31
          (Kelvin)            367.39   473.90   482.14   531.57   676.66
                              691.69   857.26  1224.19  1257.15  1345.67
                             1348.32  1368.89  1400.76  1646.77  1679.16
                             1704.30  1728.43  1752.42  1800.56  1918.26
                             1952.69  1977.19  2011.03  2027.20  2045.00
                             2133.51  2143.12  2152.08  2177.52  2595.45
                             4338.32  4406.45  4417.48  4514.08  4522.17
                             4526.65  4538.75  4544.92  4599.33  5628.85

 Zero-point correction=                           0.146458 (Hartree/Particle)
 Thermal correction to Energy=                    0.155357
 Thermal correction to Enthalpy=                  0.156301
 Thermal correction to Gibbs Free Energy=         0.112870
 Sum of electronic and zero-point Energies=           -346.794226
 Sum of electronic and thermal Energies=              -346.785327
 Sum of electronic and thermal Enthalpies=            -346.784383
 Sum of electronic and thermal Free Energies=         -346.827814

                     E (Thermal)             CV                S
                      KCal/Mol        Cal/Mol-Kelvin    Cal/Mol-Kelvin
 Total                   97.488             30.762             91.409
 Electronic               0.000              0.000              0.000
 Translational            0.889              2.981             39.779
 Rotational               0.889              2.981             27.958
 Vibrational             95.710             24.800             23.672
 Vibration     1          0.597              1.971              4.314
 Vibration     2          0.600              1.963              3.895
 Vibration     3          0.613              1.920              2.892
 Vibration     4          0.637              1.842              2.150
 Vibration     5          0.643              1.824              2.037
 Vibration     6          0.666              1.754              1.693
 Vibration     7          0.712              1.617              1.263
 Vibration     8          0.716              1.605              1.235
 Vibration     9          0.742              1.535              1.082
 Vibration    10          0.827              1.316              0.737
 Vibration    11          0.837              1.293              0.708
 Vibration    12          0.954              1.041              0.457

                           ! Non-Optimized Parameters !
 Normal termination of Gaussian 16 at Sun Sep 29 13:34:22 2019.
