 Gaussian 16, Revision A.03,
 Gaussian 16:  EM64L-G16RevA.03 25-Dec-2016

 ----------------------------------------------------------------------
 #p m062x/cc-pVTZ opt=(calcfc,maxcycles=900,Tight) freq IOP(7/33=1,2/16
 =3) scf=(maxcycle=900)
 ----------------------------------------------------------------------

 ------------------------------
 Gaussian input prepared by ASE
 ------------------------------
 Symbolic Z-matrix:
 Charge =  0 Multiplicity = 1

 SCF Done:  E(RM062X) =  -346.931288792     A.U. after   13 cycles
 SCF Done:  E(RM062X) =  -346.941189407     A.U. after   12 cycles
 SCF Done:  E(RM062X) =  -346.941244968     A.U. after   12 cycles
 SCF Done:  E(RM062X) =  -346.941385428     A.U. after   11 cycles
 SCF Done:  E(RM062X) =  -346.941475222     A.U. after   10 cycles
 SCF Done:  E(RM062X) =  -346.941477156     A.U. after    8 cycles
 SCF Done:  E(RM062X) =  -346.941477286     A.U. after    6 cycles
 SCF Done:  E(RM062X) =  -346.941477293     A.U. after    5 cycles
 SCF Done:  E(RM062X) =  -346.941477295     A.U. after    4 cycles
 SCF Done:  E(RM062X) =  -346.941477295     A.U. after    3 cycles
 Optimization completed.
    -- Stationary point found.
 Normal termination of Gaussian 16 at Sat Sep 28 10:43:39 2019.

 ----------------------------------------------------------------------
 #P Geom=AllCheck Guess=TCheck SCRF=Check Test GenChk RM062X/CC-pVTZ Fr
 eq
 ----------------------------------------------------------------------

 Structure from the checkpoint file:  "/scratch/harms.n/gauss_scrdir/Gau-36381.chk"
 ------------------------------
 Gaussian input prepared by ASE
 ------------------------------
 Charge =  0 Multiplicity = 1

                         Standard orientation:
 ---------------------------------------------------------------------
 Center     Atomic      Atomic             Coordinates (Angstroms)
 Number     Number       Type             X           Y           Z
 ---------------------------------------------------------------------
      1          8           0       -0.383479   -0.830353    0.471782
      2          8           0        3.049189    0.235677   -0.294152
      3          6           0       -1.183066    0.075666   -0.282636
      4          6           0       -1.280787    1.421380    0.419396
      5          6           0       -2.538927   -0.583642   -0.430063
      6          6           0        0.967481   -0.690351    0.415652
      7          6           0        1.679075    0.191854   -0.277703
      8          1           0       -0.729269    0.194775   -1.272533
      9          1           0       -0.298577    1.848790    0.610789
     10          1           0       -1.851581    2.123322   -0.188347
     11          1           0       -1.791454    1.294953    1.374386
     12          1           0       -2.970609   -0.758966    0.555497
     13          1           0       -2.446490   -1.539012   -0.943066
     14          1           0       -3.212822    0.058317   -0.996336
     15          1           0        1.460926   -1.434570    1.030469
     16          1           0        1.252254    0.967280   -0.894229
     17          1           0        3.399295   -0.486922    0.234451
 ---------------------------------------------------------------------

 SCF Done:  E(RM062X) =  -346.941477295     A.U. after    1 cycles

 The electronic state is 1-A.
 Alpha  occ. eigenvalues --  -19.64578 -19.64340 -10.59704 -10.58315 -10.58200
 Alpha  occ. eigenvalues --  -10.52781 -10.52774  -1.18550  -1.17085  -0.89800
 Alpha  occ. eigenvalues --   -0.83294  -0.78671  -0.72268  -0.66733  -0.60948
 Alpha  occ. eigenvalues --   -0.58636  -0.53750  -0.50841  -0.49731  -0.48214
 Alpha  occ. eigenvalues --   -0.46819  -0.45674  -0.45100  -0.43952  -0.41899
 Alpha  occ. eigenvalues --   -0.39098  -0.38564  -0.26187
 Alpha virt. eigenvalues --    0.06607   0.06973   0.08248   0.09739   0.11411
 Alpha virt. eigenvalues --    0.11956   0.12526   0.14339   0.16132   0.17770
 Alpha virt. eigenvalues --    0.18159   0.18963   0.20332   0.22841   0.24731

 Mulliken charges:
               1
     1  O   -0.248063
     2  O   -0.349464
     3  C   -0.007151
     4  C   -0.357730
     5  C   -0.346213
     6  C   -0.078351
     7  C   -0.042911
     8  H    0.136572
     9  H    0.138116
    10  H    0.122956
    11  H    0.126433
    12  H    0.122699
    13  H    0.125265
    14  H    0.108345
    15  H    0.134458
    16  H    0.164793
    17  H    0.250246
 Sum of Mulliken charges =  -0.00000

 Dipole moment (field-independent basis, Debye):
    X=             -0.6145    Y=             -0.1259    Z=              0.0918  Tot=              0.6339
 Quadrupole moment (field-independent basis, Debye-Ang):
   XX=            -42.3751   YY=            -43.8202   ZZ=            -44.2381
   XY=             -5.4145   XZ=              4.2384   YZ=             -1.2811

  Exact polarizability:  83.376   1.688  62.833  -0.801  -4.156  56.431
 Approx polarizability:  86.592   4.887  77.248  -4.011  -9.158  72.988

                      1                      2                      3
                      A                      A                      A
 Frequencies --    101.2463               163.3463               168.6301
 Red. masses --      3.3718                 1.7281                 2.5919
 Frc consts  --      0.0204                 0.0272                 0.0434
 IR Inten    --      1.6827                 9.8869                 3.2381

                      4                      5                      6
                      A                      A                      A
 Frequencies --    202.7245               255.2605               280.2512
 Red. masses --      1.1001                 1.1607                 1.5069
 Frc consts  --      0.0266                 0.0446                 0.0697
 IR Inten    --      0.8672                 2.5687                42.4681

                      7                      8                      9
                      A                      A                      A
 Frequencies --    344.3720               350.1553               381.8099
 Red. masses --      2.6105                 2.4993                 3.5972
 Frc consts  --      0.1824                 0.1805                 0.3090
 IR Inten    --      1.7828                23.0216                23.0999

                     10                     11                     12
                      A                      A                      A
 Frequencies --    434.5402               482.5574               686.4265
 Red. masses --      3.0470                 2.5868                 5.0375
 Frc consts  --      0.3390                 0.3549                 1.3985
 IR Inten    --      6.1651                 6.0375                 2.6652

                     13                     14                     15
                      A                      A                      A
 Frequencies --    832.4712               837.7069               940.8925
 Red. masses --      2.5067                 1.8603                 1.2329
 Frc consts  --      1.0235                 0.7692                 0.6430
 IR Inten    --     10.3943                 0.0743                37.7057

                     16                     17                     18
                      A                      A                      A
 Frequencies --    943.5761               946.8166               960.8994
 Red. masses --      1.1566                 1.6673                 1.5621
 Frc consts  --      0.6067                 0.8806                 0.8498
 IR Inten    --     30.2758                 6.4783                11.5126

                     19                     20                     21
                      A                      A                      A
 Frequencies --   1129.4397              1164.3352              1171.6292
 Red. masses --      2.1050                 1.8965                 1.9573
 Frc consts  --      1.5821                 1.5148                 1.5830
 IR Inten    --    146.7039                30.9543                10.2989

                     22                     23                     24
                      A                      A                      A
 Frequencies --   1206.2232              1232.4108              1300.6482
 Red. masses --      2.1118                 5.0086                 1.9958
 Frc consts  --      1.8103                 4.4821                 1.9893
 IR Inten    --     24.2987               352.7246                59.5496

                     25                     26                     27
                      A                      A                      A
 Frequencies --   1351.3619              1374.5902              1387.8878
 Red. masses --      1.2345                 1.2410                 1.2092
 Frc consts  --      1.3282                 1.3816                 1.3723
 IR Inten    --     18.5475                 9.7879                20.2772

                     28                     29                     30
                      A                      A                      A
 Frequencies --   1406.5726              1414.3729              1422.1339
 Red. masses --      1.3620                 1.3160                 1.3322
 Frc consts  --      1.5877                 1.5511                 1.5875
 IR Inten    --     35.3935                23.8300                15.6025

                     31                     32                     33
                      A                      A                      A
 Frequencies --   1483.4123              1492.9706              1497.0949
 Red. masses --      1.0551                 1.0445                 1.0558
 Frc consts  --      1.3679                 1.3718                 1.3942
 IR Inten    --      1.2431                 0.7195                 4.3891

                     34                     35                     36
                      A                      A                      A
 Frequencies --   1517.3534              1769.7392              3035.2546
 Red. masses --      1.0594                 5.7577                 1.0838
 Frc consts  --      1.4371                10.6247                 5.8827
 IR Inten    --      7.1462                 0.5496                17.5071

                     37                     38                     39
                      A                      A                      A
 Frequencies --   3067.8991              3070.8915              3138.7113
 Red. masses --      1.0354                 1.0358                 1.1028
 Frc consts  --      5.7415                 5.7550                 6.4007
 IR Inten    --     10.5187                14.6726                 2.3653

                     40                     41                     42
                      A                      A                      A
 Frequencies --   3146.3051              3154.2794              3155.8172
 Red. masses --      1.1019                 1.1028                 1.1015
 Frc consts  --      6.4268                 6.4648                 6.4631
 IR Inten    --     29.2615                13.8376                15.7265

                     43                     44                     45
                      A                      A                      A
 Frequencies --   3186.0458              3251.6796              3870.7950
 Red. masses --      1.0912                 1.0923                 1.0656
 Frc consts  --      6.5260                 6.8044                 9.4072
 IR Inten    --     23.7911                11.7651                49.3545

 - Thermochemistry -
 -------------------
 Temperature   298.150 Kelvin.  Pressure   1.00000 Atm.
 Atom     1 has atomic number  8 and mass  15.99491

 Molecular mass:   102.06808 amu.
 Principal axes and moments of inertia in atomic units:
                           1         2         3
     Eigenvalues --   298.538391352.864591499.53751
           X            0.99986  -0.01300   0.01072
           Y            0.01282   0.99977   0.01741
           Z           -0.01095  -0.01727   0.99979
 This molecule is an asymmetric top.
 Rotational symmetry number  1.
 Rotational temperatures (Kelvin)      0.29013     0.06402     0.05776
 Rotational constants (GHZ):           6.04526     1.33401     1.20353
 Zero-point vibrational energy     387072.9 (Joules/Mol)
                                   92.51265 (Kcal/Mol)
 Warning -- explicit consideration of  11 degrees of freedom as
           vibrations may cause significant error
 Vibrational temperatures:    145.67   235.02   242.62   291.68   367.26
          (Kelvin)            403.22   495.47   503.80   549.34   625.21
                              694.29   987.61  1197.74  1205.27  1353.73
                             1357.60  1362.26  1382.52  1625.01  1675.22
                             1685.71  1735.49  1773.16  1871.34  1944.31
                             1977.73  1996.86  2023.74  2034.97  2046.13
                             2134.30  2148.05  2153.99  2183.13  2546.26
                             4367.05  4414.02  4418.33  4515.91  4526.83
                             4538.30  4540.52  4584.01  4678.44  5569.21

 Zero-point correction=                           0.147428 (Hartree/Particle)
 Thermal correction to Energy=                    0.155883
 Thermal correction to Enthalpy=                  0.156827
 Thermal correction to Gibbs Free Energy=         0.115064
 Sum of electronic and zero-point Energies=           -346.794049
 Sum of electronic and thermal Energies=              -346.785594
 Sum of electronic and thermal Enthalpies=            -346.784650
 Sum of electronic and thermal Free Energies=         -346.826413

                     E (Thermal)             CV                S
                      KCal/Mol        Cal/Mol-Kelvin    Cal/Mol-Kelvin
 Total                   97.818             30.355             87.898
 Electronic               0.000              0.000              0.000
 Translational            0.889              2.981             39.779
 Rotational               0.889              2.981             27.895
 Vibrational             96.041             24.394             20.224
 Vibration     1          0.604              1.948              3.430
 Vibration     2          0.623              1.887              2.511
 Vibration     3          0.625              1.881              2.451
 Vibration     4          0.639              1.836              2.108
 Vibration     5          0.666              1.754              1.694
 Vibration     6          0.680              1.710              1.532
 Vibration     7          0.723              1.587              1.192
 Vibration     8          0.727              1.575              1.165
 Vibration     9          0.751              1.509              1.032
 Vibration    10          0.795              1.395              0.844
 Vibration    11          0.839              1.289              0.703

                           ! Non-Optimized Parameters !
 Normal termination of Gaussian 16 at Sat Sep 28 12:04:57 2019.
