 Gaussian 16, Revision A.03,
 Gaussian 16:  EM64L-G16RevA.03 25-Dec-2016

 ----------------------------------------------------------------------
 #p m062x/cc-pVTZ opt=(calcfc,maxcycles=900,Tight) freq IOP(7/33=1,2/16
 =3) scf=(maxcycle=900)
 ----------------------------------------------------------------------

 ------------------------------
 Gaussian input prepared by ASE
 ------------------------------
 Symbolic Z-matrix:
 Charge =  0 Multiplicity = 1

 SCF Done:  E(RM062X) =  -346.926116308     A.U. after   12 cycles
 SCF Done:  E(RM062X) =  -346.936765642     A.U. after   13 cycles
 SCF Done:  E(RM062X) =  -346.936319198     A.U. after   12 cycles
 SCF Done:  E(RM062X) =  -346.936883928     A.U. after   11 cycles
 SCF Done:  E(RM062X) =  -346.930632563     A.U. after   14 cycles
 SCF Done:  E(RM062X) =  -346.937884217     A.U. after   11 cycles
 SCF Done:  E(RM062X) =  -346.939368813     A.U. after   13 cycles
 SCF Done:  E(RM062X) =  -346.939219278     A.U. after   12 cycles
 SCF Done:  E(RM062X) =  -346.940251661     A.U. after   11 cycles
 SCF Done:  E(RM062X) =  -346.940398841     A.U. after   11 cycles
 SCF Done:  E(RM062X) =  -346.940572148     A.U. after   10 cycles
 SCF Done:  E(RM062X) =  -346.940603545     A.U. after    9 cycles
 SCF Done:  E(RM062X) =  -346.940609731     A.U. after    9 cycles
 SCF Done:  E(RM062X) =  -346.940609862     A.U. after    7 cycles
 SCF Done:  E(RM062X) =  -346.940609871     A.U. after    5 cycles
 SCF Done:  E(RM062X) =  -346.940609872     A.U. after    3 cycles
 Optimization completed.
    -- Stationary point found.
 Normal termination of Gaussian 16 at Sat Sep 28 12:25:55 2019.

 ----------------------------------------------------------------------
 #P Geom=AllCheck Guess=TCheck SCRF=Check Test GenChk RM062X/CC-pVTZ Fr
 eq
 ----------------------------------------------------------------------

 Structure from the checkpoint file:  "/scratch/harms.n/gauss_scrdir/Gau-43957.chk"
 ------------------------------
 Gaussian input prepared by ASE
 ------------------------------
 Charge =  0 Multiplicity = 1

                         Standard orientation:
 ---------------------------------------------------------------------
 Center     Atomic      Atomic             Coordinates (Angstroms)
 Number     Number       Type             X           Y           Z
 ---------------------------------------------------------------------
      1          8           0       -0.389180   -0.819018    0.488873
      2          8           0        3.054647    0.047176   -0.266914
      3          6           0       -1.183296    0.075413   -0.286032
      4          6           0       -1.281311    1.432480    0.393019
      5          6           0       -2.539468   -0.583574   -0.430513
      6          6           0        0.956590   -0.684032    0.445096
      7          6           0        1.680563    0.175240   -0.263382
      8          1           0       -0.721386    0.177220   -1.273848
      9          1           0       -0.297968    1.859445    0.579817
     10          1           0       -1.848518    2.125317   -0.228386
     11          1           0       -1.794784    1.323756    1.348661
     12          1           0       -2.978643   -0.739988    0.554896
     13          1           0       -2.445318   -1.548393   -0.925119
     14          1           0       -3.207899    0.049030   -1.013570
     15          1           0        1.457359   -1.418080    1.062044
     16          1           0        1.263411    0.943356   -0.901764
     17          1           0        3.451541    0.909912   -0.127529
 ---------------------------------------------------------------------

 SCF Done:  E(RM062X) =  -346.940609872     A.U. after    1 cycles

 The electronic state is 1-A.
 Alpha  occ. eigenvalues --  -19.64729 -19.63564 -10.59759 -10.58138 -10.57555
 Alpha  occ. eigenvalues --  -10.52957 -10.52804  -1.18701  -1.16222  -0.89909
 Alpha  occ. eigenvalues --   -0.83371  -0.78795  -0.71618  -0.64043  -0.61848
 Alpha  occ. eigenvalues --   -0.58362  -0.54262  -0.53016  -0.50118  -0.48014
 Alpha  occ. eigenvalues --   -0.46374  -0.45577  -0.44477  -0.42916  -0.40485
 Alpha  occ. eigenvalues --   -0.39455  -0.37764  -0.26794
 Alpha virt. eigenvalues --    0.06001   0.07197   0.07944   0.10291   0.11369
 Alpha virt. eigenvalues --    0.12354   0.12387   0.14352   0.16332   0.17463
 Alpha virt. eigenvalues --    0.17684   0.18668   0.20301   0.22821   0.24380

 Mulliken charges:
               1
     1  O   -0.243684
     2  O   -0.344640
     3  C   -0.010193
     4  C   -0.356365
     5  C   -0.345110
     6  C   -0.019658
     7  C   -0.088246
     8  H    0.138185
     9  H    0.130200
    10  H    0.122861
    11  H    0.128196
    12  H    0.123030
    13  H    0.126630
    14  H    0.107617
    15  H    0.160636
    16  H    0.121558
    17  H    0.248982
 Sum of Mulliken charges =  -0.00000

 Dipole moment (field-independent basis, Debye):
    X=             -0.7244    Y=              2.2291    Z=             -0.4212  Tot=              2.3814
 Quadrupole moment (field-independent basis, Debye-Ang):
   XX=            -42.4225   YY=            -42.4176   ZZ=            -44.3509
   XY=              4.2585   XZ=              2.0759   YZ=             -1.1233

  Exact polarizability:  83.672   3.746  63.567  -1.332  -3.571  56.240
 Approx polarizability:  86.593   6.135  77.629  -4.420  -7.634  72.471

                      1                      2                      3
                      A                      A                      A
 Frequencies --    103.4612               167.6230               171.2950
 Red. masses --      3.5850                 2.2268                 1.7962
 Frc consts  --      0.0226                 0.0369                 0.0311
 IR Inten    --      0.7098                 7.4277                14.1820

                      4                      5                      6
                      A                      A                      A
 Frequencies --    202.2911               245.9793               257.5536
 Red. masses --      1.1053                 1.1537                 1.2100
 Frc consts  --      0.0266                 0.0411                 0.0473
 IR Inten    --      0.1912                98.0358                19.8417

                      7                      8                      9
                      A                      A                      A
 Frequencies --    317.9524               347.3383               392.3146
 Red. masses --      3.9653                 2.5930                 3.8462
 Frc consts  --      0.2362                 0.1843                 0.3488
 IR Inten    --      2.3545                 1.4292                15.4244

                     10                     11                     12
                      A                      A                      A
 Frequencies --    431.5087               485.6987               689.5763
 Red. masses --      3.3590                 2.5841                 5.4859
 Frc consts  --      0.3685                 0.3592                 1.5370
 IR Inten    --      3.1165                 3.0318                 2.3489

                     13                     14                     15
                      A                      A                      A
 Frequencies --    831.7868               832.7922               941.9860
 Red. masses --      2.3980                 1.7534                 1.2632
 Frc consts  --      0.9775                 0.7165                 0.6604
 IR Inten    --      5.2758                13.1657                 3.1310

                     16                     17                     18
                      A                      A                      A
 Frequencies --    947.1685               956.9459               963.8794
 Red. masses --      1.7167                 1.3731                 1.2900
 Frc consts  --      0.9074                 0.7408                 0.7061
 IR Inten    --      4.6940                21.7271                30.8740

                     19                     20                     21
                      A                      A                      A
 Frequencies --   1149.0556              1171.6703              1185.4380
 Red. masses --      2.0392                 2.0413                 2.0181
 Frc consts  --      1.5863                 1.6511                 1.6709
 IR Inten    --     21.1815                10.2170                32.9585

                     22                     23                     24
                      A                      A                      A
 Frequencies --   1199.7296              1213.1966              1292.4872
 Red. masses --      3.1642                 1.9737                 2.2407
 Frc consts  --      2.6834                 1.7116                 2.2054
 IR Inten    --    300.0815               180.0013                61.3635

                     25                     26                     27
                      A                      A                      A
 Frequencies --   1346.2890              1364.9244              1376.0636
 Red. masses --      1.2436                 1.3196                 1.2892
 Frc consts  --      1.3280                 1.4484                 1.4382
 IR Inten    --     30.2684                10.0808                 4.0552

                     28                     29                     30
                      A                      A                      A
 Frequencies --   1392.9696              1411.2175              1421.9472
 Red. masses --      1.2197                 1.4075                 1.3283
 Frc consts  --      1.3944                 1.6516                 1.5823
 IR Inten    --      6.5936                21.5535                19.5044

                     31                     32                     33
                      A                      A                      A
 Frequencies --   1483.3129              1492.6571              1496.7923
 Red. masses --      1.0559                 1.0443                 1.0557
 Frc consts  --      1.3688                 1.3709                 1.3936
 IR Inten    --      1.1266                 0.4471                 4.2104

                     34                     35                     36
                      A                      A                      A
 Frequencies --   1517.0645              1771.1293              3038.3285
 Red. masses --      1.0589                 5.4930                 1.0838
 Frc consts  --      1.4358                10.1521                 5.8949
 IR Inten    --      7.6722                18.0618                15.8000

                     37                     38                     39
                      A                      A                      A
 Frequencies --   3068.0019              3071.0652              3138.8622
 Red. masses --      1.0354                 1.0357                 1.1028
 Frc consts  --      5.7420                 5.7552                 6.4017
 IR Inten    --     10.8734                14.3858                 2.3429

                     40                     41                     42
                      A                      A                      A
 Frequencies --   3146.4826              3154.5693              3155.5089
 Red. masses --      1.1020                 1.1019                 1.1023
 Frc consts  --      6.4278                 6.4603                 6.4670
 IR Inten    --     28.4963                13.3903                18.6338

                     43                     44                     45
                      A                      A                      A
 Frequencies --   3201.2047              3219.4617              3881.4044
 Red. masses --      1.0909                 1.0927                 1.0665
 Frc consts  --      6.5866                 6.6729                 9.4669
 IR Inten    --     23.7303                 8.1077                72.9630

 - Thermochemistry -
 -------------------
 Temperature   298.150 Kelvin.  Pressure   1.00000 Atm.
 Atom     1 has atomic number  8 and mass  15.99491

 Molecular mass:   102.06808 amu.
 Principal axes and moments of inertia in atomic units:
                           1         2         3
     Eigenvalues --   297.116711355.576981501.03497
           X            0.99997   0.00275   0.00779
           Y           -0.00287   0.99988   0.01518
           Z           -0.00775  -0.01520   0.99985
 This molecule is an asymmetric top.
 Rotational symmetry number  1.
 Rotational temperatures (Kelvin)      0.29151     0.06389     0.05770
 Rotational constants (GHZ):           6.07418     1.33135     1.20233
 Zero-point vibrational energy     386680.8 (Joules/Mol)
                                   92.41893 (Kcal/Mol)
 Warning -- explicit consideration of  11 degrees of freedom as
           vibrations may cause significant error
 Vibrational temperatures:    148.86   241.17   246.46   291.05   353.91
          (Kelvin)            370.56   457.46   499.74   564.45   620.84
                              698.81   992.15  1196.76  1198.20  1355.31
                             1362.76  1376.83  1386.81  1653.23  1685.77
                             1705.58  1726.14  1745.52  1859.60  1937.01
                             1963.82  1979.85  2004.17  2030.43  2045.86
                             2134.16  2147.60  2153.55  2182.72  2548.26
                             4371.48  4414.17  4418.58  4516.12  4527.09
                             4538.72  4540.07  4605.82  4632.09  5584.48

 Zero-point correction=                           0.147279 (Hartree/Particle)
 Thermal correction to Energy=                    0.155783
 Thermal correction to Enthalpy=                  0.156727
 Thermal correction to Gibbs Free Energy=         0.114874
 Sum of electronic and zero-point Energies=           -346.793331
 Sum of electronic and thermal Energies=              -346.784827
 Sum of electronic and thermal Enthalpies=            -346.783883
 Sum of electronic and thermal Free Energies=         -346.825735

                     E (Thermal)             CV                S
                      KCal/Mol        Cal/Mol-Kelvin    Cal/Mol-Kelvin
 Total                   97.755             30.424             88.086
 Electronic               0.000              0.000              0.000
 Translational            0.889              2.981             39.779
 Rotational               0.889              2.981             27.894
 Vibrational             95.978             24.463             20.413
 Vibration     1          0.605              1.946              3.388
 Vibration     2          0.624              1.882              2.462
 Vibration     3          0.626              1.878              2.421
 Vibration     4          0.639              1.837              2.112
 Vibration     5          0.660              1.769              1.759
 Vibration     6          0.667              1.750              1.678
 Vibration     7          0.704              1.639              1.321
 Vibration     8          0.725              1.581              1.178
 Vibration     9          0.760              1.487              0.991
 Vibration    10          0.793              1.402              0.854
 Vibration    11          0.842              1.282              0.695

 Optimization completed.
    -- Stationary point found.
 Normal termination of Gaussian 16 at Sat Sep 28 14:13:36 2019.
