 Gaussian 16, Revision A.03,
 Gaussian 16:  EM64L-G16RevA.03 25-Dec-2016

 ----------------------------------------------------------------------
 #p m062x/cc-pVTZ opt=(calcfc,maxcycles=900,Tight) freq IOP(7/33=1,2/16
 =3) scf=(maxcycle=900)
 ----------------------------------------------------------------------

 ------------------------------
 Gaussian input prepared by ASE
 ------------------------------
 Symbolic Z-matrix:
 Charge =  0 Multiplicity = 1

 SCF Done:  E(RM062X) =  -346.925809851     A.U. after   13 cycles
 SCF Done:  E(RM062X) =  -346.937459555     A.U. after   14 cycles
 SCF Done:  E(RM062X) =  -346.935912508     A.U. after   14 cycles
 SCF Done:  E(RM062X) =  -346.937161273     A.U. after   12 cycles
 SCF Done:  E(RM062X) =  -346.937468459     A.U. after    9 cycles
 SCF Done:  E(RM062X) =  -346.937317667     A.U. after   12 cycles
 SCF Done:  E(RM062X) =  -346.938127778     A.U. after   11 cycles
 SCF Done:  E(RM062X) =  -346.938234270     A.U. after   10 cycles
 SCF Done:  E(RM062X) =  -346.938251207     A.U. after   10 cycles
 SCF Done:  E(RM062X) =  -346.938252043     A.U. after    8 cycles
 SCF Done:  E(RM062X) =  -346.938252165     A.U. after    6 cycles
 SCF Done:  E(RM062X) =  -346.938252164     A.U. after    5 cycles
 SCF Done:  E(RM062X) =  -346.938252164     A.U. after    3 cycles
 SCF Done:  E(RM062X) =  -346.938252161     A.U. after    5 cycles
 SCF Done:  E(RM062X) =  -346.938252159     A.U. after    5 cycles
 SCF Done:  E(RM062X) =  -346.938252169     A.U. after    6 cycles
 SCF Done:  E(RM062X) =  -346.938252164     A.U. after    7 cycles
 SCF Done:  E(RM062X) =  -346.938252163     A.U. after    3 cycles
 SCF Done:  E(RM062X) =  -346.938252164     A.U. after    3 cycles
 Optimization completed.
    -- Stationary point found.
 Normal termination of Gaussian 16 at Sat Sep 28 15:02:59 2019.

 ----------------------------------------------------------------------
 #P Geom=AllCheck Guess=TCheck SCRF=Check Test GenChk RM062X/CC-pVTZ Fr
 eq
 ----------------------------------------------------------------------

 Structure from the checkpoint file:  "/scratch/harms.n/gauss_scrdir/Gau-5161.chk"
 ------------------------------
 Gaussian input prepared by ASE
 ------------------------------
 Charge =  0 Multiplicity = 1

                         Standard orientation:
 ---------------------------------------------------------------------
 Center     Atomic      Atomic             Coordinates (Angstroms)
 Number     Number       Type             X           Y           Z
 ---------------------------------------------------------------------
      1          8           0       -0.279543    0.189647    0.953808
      2          8           0        3.007815    0.161303   -0.495699
      3          6           0       -1.552477   -0.104126    0.367179
      4          6           0       -1.501396   -1.392677   -0.434935
      5          6           0       -2.086969    1.064908   -0.446199
      6          6           0        0.748057    0.404147    0.079601
      7          6           0        1.923819   -0.171777    0.272088
      8          1           0       -2.194390   -0.246699    1.236639
      9          1           0       -0.865452   -1.273773   -1.313019
     10          1           0       -1.100109   -2.202933    0.172637
     11          1           0       -2.501553   -1.667087   -0.769937
     12          1           0       -1.544066    1.184785   -1.384037
     13          1           0       -2.013533    1.989830    0.124344
     14          1           0       -3.134051    0.891039   -0.693167
     15          1           0        0.597298    1.115858   -0.724923
     16          1           0        2.072154   -0.875627    1.082377
     17          1           0        3.671320   -0.525838   -0.422186
 ---------------------------------------------------------------------

 SCF Done:  E(RM062X) =  -346.938252164     A.U. after    1 cycles

 The electronic state is 1-A.
 Alpha  occ. eigenvalues --  -19.64323 -19.63236 -10.59171 -10.57967 -10.56945
 Alpha  occ. eigenvalues --  -10.52738 -10.52503  -1.17619  -1.16669  -0.89223
 Alpha  occ. eigenvalues --   -0.83236  -0.78652  -0.70500  -0.64039  -0.61377
 Alpha  occ. eigenvalues --   -0.56897  -0.54598  -0.53176  -0.49466  -0.47968
 Alpha  occ. eigenvalues --   -0.47310  -0.45345  -0.43809  -0.42615  -0.41589
 Alpha  occ. eigenvalues --   -0.38947  -0.35787  -0.26502
 Alpha virt. eigenvalues --    0.06109   0.06754   0.07907   0.09708   0.11223
 Alpha virt. eigenvalues --    0.12446   0.13475   0.14742   0.16572   0.16942
 Alpha virt. eigenvalues --    0.17774   0.18140   0.19984   0.23722   0.24222

 Mulliken charges:
               1
     1  O   -0.271607
     2  O   -0.327572
     3  C    0.023883
     4  C   -0.378058
     5  C   -0.385583
     6  C   -0.051114
     7  C   -0.029292
     8  H    0.145992
     9  H    0.129988
    10  H    0.130455
    11  H    0.121547
    12  H    0.117122
    13  H    0.140537
    14  H    0.124565
    15  H    0.142483
    16  H    0.114208
    17  H    0.252446
 Sum of Mulliken charges =  -0.00000

 Dipole moment (field-independent basis, Debye):
    X=             -0.2791    Y=             -1.5379    Z=             -0.5071  Tot=              1.6432
 Quadrupole moment (field-independent basis, Debye-Ang):
   XX=            -35.6607   YY=            -43.2721   ZZ=            -45.9230
   XY=             -5.4850   XZ=              1.3025   YZ=             -1.0930

  Exact polarizability:  88.870  -5.403  61.784   0.453  -2.801  55.776
 Approx polarizability:  93.993  -6.406  71.856  -1.048  -3.326  70.411

                      1                      2                      3
                      A                      A                      A
 Frequencies --     38.7083                69.6861               156.5516
 Red. masses --      2.2546                 2.8896                 1.5126
 Frc consts  --      0.0020                 0.0083                 0.0218
 IR Inten    --      3.2079                 3.0631               102.4551

                      4                      5                      6
                      A                      A                      A
 Frequencies --    173.7244               229.4455               260.0898
 Red. masses --      2.0905                 1.0919                 1.0473
 Frc consts  --      0.0372                 0.0339                 0.0417
 IR Inten    --     26.6393                 2.2102                 0.0861

                      7                      8                      9
                      A                      A                      A
 Frequencies --    325.3078               329.6141               400.7586
 Red. masses --      2.8701                 2.7110                 2.5773
 Frc consts  --      0.1790                 0.1735                 0.2439
 IR Inten    --      6.0818                 5.0522                 0.3230

                     10                     11                     12
                      A                      A                      A
 Frequencies --    436.5141               546.8953               587.9394
 Red. masses --      3.6337                 3.8981                 2.9750
 Frc consts  --      0.4079                 0.6869                 0.6059
 IR Inten    --     14.2282                 5.2765                 3.3248

                     13                     14                     15
                      A                      A                      A
 Frequencies --    834.5718               867.2040               929.4027
 Red. masses --      2.8040                 2.0385                 1.1827
 Frc consts  --      1.1507                 0.9032                 0.6019
 IR Inten    --      3.1487                 9.5282                 3.2416

                     16                     17                     18
                      A                      A                      A
 Frequencies --    938.7708               945.1937               980.3733
 Red. masses --      1.1942                 1.2976                 2.5047
 Frc consts  --      0.6201                 0.6830                 1.4183
 IR Inten    --     39.4322                12.2304                16.3825

                     19                     20                     21
                      A                      A                      A
 Frequencies --   1111.1697              1158.6617              1173.4116
 Red. masses --      1.9630                 2.1077                 1.9672
 Frc consts  --      1.4280                 1.6671                 1.5959
 IR Inten    --     39.1752                17.3097                14.1640

                     22                     23                     24
                      A                      A                      A
 Frequencies --   1204.4563              1217.4112              1249.6607
 Red. masses --      1.9666                 3.9721                 1.6038
 Frc consts  --      1.6809                 3.4685                 1.4756
 IR Inten    --     21.8592               554.0214                18.6335

                     25                     26                     27
                      A                      A                      A
 Frequencies --   1334.3241              1363.9843              1369.9972
 Red. masses --      1.3063                 1.3152                 1.2931
 Frc consts  --      1.3703                 1.4417                 1.4299
 IR Inten    --     16.0174                12.0704                 1.0172

                     28                     29                     30
                      A                      A                      A
 Frequencies --   1404.1551              1410.3579              1420.9190
 Red. masses --      1.4093                 1.3062                 1.3053
 Frc consts  --      1.6371                 1.5308                 1.5527
 IR Inten    --     26.0566                10.2359                13.8729

                     31                     32                     33
                      A                      A                      A
 Frequencies --   1485.0466              1489.6583              1501.7908
 Red. masses --      1.0493                 1.0520                 1.0490
 Frc consts  --      1.3634                 1.3754                 1.3940
 IR Inten    --      0.7350                 1.4110                 8.3296

                     34                     35                     36
                      A                      A                      A
 Frequencies --   1513.4212              1801.0141              3063.6422
 Red. masses --      1.0619                 5.5684                 1.0348
 Frc consts  --      1.4331                10.6419                 5.7222
 IR Inten    --      4.4906                 1.3055                11.9288

                     37                     38                     39
                      A                      A                      A
 Frequencies --   3067.2552              3090.1616              3135.1302
 Red. masses --      1.0360                 1.0863                 1.1020
 Frc consts  --      5.7426                 6.1118                 6.3819
 IR Inten    --      7.2684                14.3241                 1.8277

                     40                     41                     42
                      A                      A                      A
 Frequencies --   3142.6052              3145.0933              3148.0577
 Red. masses --      1.1008                 1.1028                 1.1032
 Frc consts  --      6.4050                 6.4272                 6.4413
 IR Inten    --     43.3229                17.1065                16.7844

                     43                     44                     45
                      A                      A                      A
 Frequencies --   3184.0577              3195.6393              3920.3240
 Red. masses --      1.0882                 1.0952                 1.0668
 Frc consts  --      6.5002                 6.5897                 9.6603
 IR Inten    --     23.1539                 6.7158               115.6991

 - Thermochemistry -
 -------------------
 Temperature   298.150 Kelvin.  Pressure   1.00000 Atm.
 Atom     1 has atomic number  8 and mass  15.99491

 Molecular mass:   102.06808 amu.
 Principal axes and moments of inertia in atomic units:
                           1         2         3
     Eigenvalues --   328.428221380.191281467.59435
           X            0.99983  -0.01048   0.01499
           Y            0.01125   0.99859  -0.05195
           Z           -0.01443   0.05211   0.99854
 This molecule is an asymmetric top.
 Rotational symmetry number  1.
 Rotational temperatures (Kelvin)      0.26372     0.06276     0.05902
 Rotational constants (GHZ):           5.49509     1.30760     1.22973
 Zero-point vibrational energy     384911.4 (Joules/Mol)
                                   91.99603 (Kcal/Mol)
 Warning -- explicit consideration of  12 degrees of freedom as
           vibrations may cause significant error
 Vibrational temperatures:     55.69   100.26   225.24   249.95   330.12
          (Kelvin)            374.21   468.05   474.24   576.60   628.05
                              786.86   845.91  1200.76  1247.71  1337.20
                             1350.68  1359.92  1410.54  1598.73  1667.06
                             1688.28  1732.94  1751.58  1797.98  1919.79
                             1962.47  1971.12  2020.27  2029.19  2044.39
                             2136.65  2143.29  2160.74  2177.48  2591.26
                             4407.90  4413.10  4446.05  4510.75  4521.51
                             4525.09  4529.35  4581.15  4597.81  5640.47

 Zero-point correction=                           0.146605 (Hartree/Particle)
 Thermal correction to Energy=                    0.155518
 Thermal correction to Enthalpy=                  0.156462
 Thermal correction to Gibbs Free Energy=         0.112567
 Sum of electronic and zero-point Energies=           -346.791647
 Sum of electronic and thermal Energies=              -346.782734
 Sum of electronic and thermal Enthalpies=            -346.781790
 Sum of electronic and thermal Free Energies=         -346.825685

                     E (Thermal)             CV                S
                      KCal/Mol        Cal/Mol-Kelvin    Cal/Mol-Kelvin
 Total                   97.589             30.720             92.385
 Electronic               0.000              0.000              0.000
 Translational            0.889              2.981             39.779
 Rotational               0.889              2.981             27.989
 Vibrational             95.812             24.759             24.617
 Vibration     1          0.594              1.981              5.324
 Vibration     2          0.598              1.969              4.162
 Vibration     3          0.620              1.895              2.591
 Vibration     4          0.627              1.875              2.395
 Vibration     5          0.652              1.796              1.883
 Vibration     6          0.668              1.746              1.661
 Vibration     7          0.709              1.625              1.283
 Vibration     8          0.712              1.616              1.262
 Vibration     9          0.767              1.468              0.960
 Vibration    10          0.797              1.391              0.838
 Vibration    11          0.902              1.146              0.551
 Vibration    12          0.945              1.058              0.471

                           ! Non-Optimized Parameters !
 Normal termination of Gaussian 16 at Sat Sep 28 16:50:54 2019.
