 Gaussian 16, Revision A.03,
 Gaussian 16:  EM64L-G16RevA.03 25-Dec-2016

 ----------------------------------------------------------------------
 #p m062x/cc-pVTZ opt=(calcfc,maxcycles=900,Tight) freq IOP(7/33=1,2/16
 =3) scf=(maxcycle=900)
 ----------------------------------------------------------------------

 ------------------------------
 Gaussian input prepared by ASE
 ------------------------------
 Symbolic Z-matrix:
 Charge =  0 Multiplicity = 1

 SCF Done:  E(RM062X) =  -346.922486124     A.U. after   13 cycles
 SCF Done:  E(RM062X) =  -346.935022820     A.U. after   12 cycles
 SCF Done:  E(RM062X) =  -346.933305513     A.U. after   12 cycles
 SCF Done:  E(RM062X) =  -346.935804553     A.U. after   13 cycles
 SCF Done:  E(RM062X) =  -346.937692582     A.U. after   12 cycles
 SCF Done:  E(RM062X) =  -346.938874561     A.U. after   14 cycles
 SCF Done:  E(RM062X) =  -346.939624462     A.U. after   12 cycles
 SCF Done:  E(RM062X) =  -346.939636330     A.U. after   11 cycles
 SCF Done:  E(RM062X) =  -346.939721724     A.U. after   10 cycles
 SCF Done:  E(RM062X) =  -346.939724456     A.U. after    8 cycles
 SCF Done:  E(RM062X) =  -346.939725333     A.U. after    7 cycles
 SCF Done:  E(RM062X) =  -346.939725386     A.U. after    7 cycles
 SCF Done:  E(RM062X) =  -346.939725400     A.U. after    6 cycles
 SCF Done:  E(RM062X) =  -346.939725402     A.U. after    4 cycles
 SCF Done:  E(RM062X) =  -346.939725402     A.U. after    3 cycles
 SCF Done:  E(RM062X) =  -346.939725403     A.U. after    4 cycles
 SCF Done:  E(RM062X) =  -346.939725402     A.U. after    4 cycles
 SCF Done:  E(RM062X) =  -346.939725403     A.U. after    4 cycles
 SCF Done:  E(RM062X) =  -346.939725402     A.U. after    4 cycles
 Optimization completed.
    -- Stationary point found.
 Normal termination of Gaussian 16 at Sun Sep 29 07:58:34 2019.

 ----------------------------------------------------------------------
 #P Geom=AllCheck Guess=TCheck SCRF=Check Test GenChk RM062X/CC-pVTZ Fr
 eq
 ----------------------------------------------------------------------

 Structure from the checkpoint file:  "/scratch/harms.n/gauss_scrdir/Gau-28279.chk"
 ------------------------------
 Gaussian input prepared by ASE
 ------------------------------
 Charge =  0 Multiplicity = 1

                         Standard orientation:
 ---------------------------------------------------------------------
 Center     Atomic      Atomic             Coordinates (Angstroms)
 Number     Number       Type             X           Y           Z
 ---------------------------------------------------------------------
      1          8           0        0.305921    0.181217   -1.016995
      2          8           0       -3.006579    0.005255    0.451540
      3          6           0        1.539630   -0.105989   -0.344138
      4          6           0        1.437288   -1.393851    0.453144
      5          6           0        2.009438    1.063839    0.505650
      6          6           0       -0.760189    0.490794   -0.216862
      7          6           0       -1.852014   -0.261000   -0.218033
      8          1           0        2.239424   -0.246171   -1.168155
      9          1           0        0.736194   -1.278867    1.280333
     10          1           0        1.090436   -2.207672   -0.182459
     11          1           0        2.411369   -1.660593    0.863092
     12          1           0        1.390118    1.181841    1.395662
     13          1           0        1.982907    1.989299   -0.068872
     14          1           0        3.032985    0.890978    0.836843
     15          1           0       -0.699304    1.412295    0.358366
     16          1           0       -1.906799   -1.170716   -0.799242
     17          1           0       -2.916979    0.835073    0.929503
 ---------------------------------------------------------------------

 SCF Done:  E(RM062X) =  -346.939725402     A.U. after    1 cycles

 The electronic state is 1-A.
 Alpha  occ. eigenvalues --  -19.65022 -19.63310 -10.59275 -10.58733 -10.57395
 Alpha  occ. eigenvalues --  -10.53022 -10.52521  -1.18290  -1.16823  -0.89295
 Alpha  occ. eigenvalues --   -0.83192  -0.78828  -0.71655  -0.66496  -0.59984
 Alpha  occ. eigenvalues --   -0.56710  -0.55840  -0.51465  -0.50081  -0.47904
 Alpha  occ. eigenvalues --   -0.47199  -0.45775  -0.44760  -0.43895  -0.41919
 Alpha  occ. eigenvalues --   -0.39146  -0.35138  -0.27391
 Alpha virt. eigenvalues --    0.06073   0.06560   0.07574   0.09633   0.10911
 Alpha virt. eigenvalues --    0.12020   0.13610   0.14900   0.15126   0.16525
 Alpha virt. eigenvalues --    0.17664   0.17817   0.19898   0.24238   0.26141

 Mulliken charges:
               1
     1  O   -0.276517
     2  O   -0.337309
     3  C    0.043506
     4  C   -0.388007
     5  C   -0.398975
     6  C   -0.111913
     7  C    0.013718
     8  H    0.146841
     9  H    0.129933
    10  H    0.134641
    11  H    0.122974
    12  H    0.118223
    13  H    0.139817
    14  H    0.126845
    15  H    0.115241
    16  H    0.169201
    17  H    0.251781
 Sum of Mulliken charges =   0.00000

 Dipole moment (field-independent basis, Debye):
    X=              1.3064    Y=              0.7754    Z=              1.5114  Tot=              2.1430
 Quadrupole moment (field-independent basis, Debye-Ang):
   XX=            -44.3595   YY=            -41.4203   ZZ=            -45.3569
   XY=             -3.0760   XZ=             -1.2385   YZ=              3.1552

  Exact polarizability:  84.314   3.816  64.726  -1.447   3.012  55.024
 Approx polarizability:  91.143   6.109  75.876  -3.418   3.252  69.960

                      1                      2                      3
                      A                      A                      A
 Frequencies --     50.4542                75.6834               181.9082
 Red. masses --      2.3471                 3.2394                 2.1297
 Frc consts  --      0.0035                 0.0109                 0.0415
 IR Inten    --      3.0681                 2.2106                10.5780

                      4                      5                      6
                      A                      A                      A
 Frequencies --    228.8198               266.5869               309.9304
 Red. masses --      1.1096                 1.0670                 2.4814
 Frc consts  --      0.0342                 0.0447                 0.1404
 IR Inten    --      1.0282                 0.5340                15.7122

                      7                      8                      9
                      A                      A                      A
 Frequencies --    331.6265               383.7834               410.3946
 Red. masses --      2.6258                 1.6382                 2.2247
 Frc consts  --      0.1701                 0.1422                 0.2208
 IR Inten    --      1.7887                31.6589                25.8074

                     10                     11                     12
                      A                      A                      A
 Frequencies --    440.2324               540.4531               599.3081
 Red. masses --      3.1963                 3.2329                 3.2018
 Frc consts  --      0.3650                 0.5564                 0.6776
 IR Inten    --     26.3971                 2.0681                10.5295

                     13                     14                     15
                      A                      A                      A
 Frequencies --    830.2495               866.0084               928.6739
 Red. masses --      2.8044                 1.9274                 1.1941
 Frc consts  --      1.1390                 0.8517                 0.6067
 IR Inten    --      7.6430                22.0118                 0.4015

                     16                     17                     18
                      A                      A                      A
 Frequencies --    942.7474               957.7078               976.7021
 Red. masses --      1.4061                 1.2773                 2.0465
 Frc consts  --      0.7363                 0.6903                 1.1502
 IR Inten    --      0.4338                29.6176                42.7510

                     19                     20                     21
                      A                      A                      A
 Frequencies --   1110.4185              1154.6841              1159.4905
 Red. masses --      2.0431                 1.9842                 2.0511
 Frc consts  --      1.4843                 1.5587                 1.6247
 IR Inten    --     43.5392               124.1071                22.7954

                     22                     23                     24
                      A                      A                      A
 Frequencies --   1204.2117              1223.4169              1280.6784
 Red. masses --      2.0228                 4.5810                 1.8745
 Frc consts  --      1.7282                 4.0398                 1.8114
 IR Inten    --      9.5141               341.5679                24.3041

                     25                     26                     27
                      A                      A                      A
 Frequencies --   1327.3566              1369.1927              1380.6822
 Red. masses --      1.1823                 1.2824                 1.2294
 Frc consts  --      1.2273                 1.4165                 1.3808
 IR Inten    --      0.5471                 1.1623                37.9536

                     28                     29                     30
                      A                      A                      A
 Frequencies --   1403.5730              1408.0392              1419.0803
 Red. masses --      1.4186                 1.3110                 1.3080
 Frc consts  --      1.6466                 1.5313                 1.5519
 IR Inten    --     28.3495                30.5999                22.8600

                     31                     32                     33
                      A                      A                      A
 Frequencies --   1484.1832              1490.4753              1500.2993
 Red. masses --      1.0506                 1.0502                 1.0476
 Frc consts  --      1.3636                 1.3746                 1.3894
 IR Inten    --      0.9330                 1.6728                 6.6084

                     34                     35                     36
                      A                      A                      A
 Frequencies --   1513.8765              1774.4574              3063.4785
 Red. masses --      1.0612                 5.9609                 1.0350
 Frc consts  --      1.4329                11.0584                 5.7228
 IR Inten    --      6.6930                22.7043                12.9142

                     37                     38                     39
                      A                      A                      A
 Frequencies --   3066.4232              3090.7987              3132.9713
 Red. masses --      1.0358                 1.0863                 1.0975
 Frc consts  --      5.7382                 6.1142                 6.3472
 IR Inten    --      6.2071                15.4069                 9.1419

                     40                     41                     42
                      A                      A                      A
 Frequencies --   3139.3905              3143.6541              3145.1666
 Red. masses --      1.0959                 1.1000                 1.1022
 Frc consts  --      6.3637                 6.4050                 6.4239
 IR Inten    --      7.2197                52.9899                25.5908

                     43                     44                     45
                      A                      A                      A
 Frequencies --   3146.5441              3231.7403              3865.1726
 Red. masses --      1.1023                 1.0936                 1.0655
 Frc consts  --      6.4300                 6.7294                 9.3787
 IR Inten    --     19.0359                 5.5826                47.5551

 - Thermochemistry -
 -------------------
 Temperature   298.150 Kelvin.  Pressure   1.00000 Atm.
 Atom     1 has atomic number  8 and mass  15.99491

 Molecular mass:   102.06808 amu.
 Principal axes and moments of inertia in atomic units:
                           1         2         3
     Eigenvalues --   345.756871327.224411417.98873
           X            0.99993  -0.00395   0.01081
           Y            0.00306   0.99668   0.08135
           Z           -0.01110  -0.08132   0.99663
 This molecule is an asymmetric top.
 Rotational symmetry number  1.
 Rotational temperatures (Kelvin)      0.25051     0.06526     0.06108
 Rotational constants (GHZ):           5.21968     1.35979     1.27275
 Zero-point vibrational energy     386099.1 (Joules/Mol)
                                   92.27990 (Kcal/Mol)
 Warning -- explicit consideration of  12 degrees of freedom as
           vibrations may cause significant error
 Vibrational temperatures:     72.59   108.89   261.73   329.22   383.56
          (Kelvin)            445.92   477.14   552.18   590.47   633.40
                              777.59   862.27  1194.54  1245.99  1336.15
                             1356.40  1377.93  1405.26  1597.64  1661.33
                             1668.25  1732.59  1760.22  1842.61  1909.77
                             1969.96  1986.49  2019.43  2025.85  2041.74
                             2135.41  2144.46  2158.60  2178.13  2553.05
                             4407.66  4411.90  4446.97  4507.65  4516.88
                             4523.02  4525.19  4527.18  4649.75  5561.12

 Zero-point correction=                           0.147057 (Hartree/Particle)
 Thermal correction to Energy=                    0.155606
 Thermal correction to Enthalpy=                  0.156550
 Thermal correction to Gibbs Free Energy=         0.113789
 Sum of electronic and zero-point Energies=           -346.792668
 Sum of electronic and thermal Energies=              -346.784120
 Sum of electronic and thermal Enthalpies=            -346.783175
 Sum of electronic and thermal Free Energies=         -346.825937

                     E (Thermal)             CV                S
                      KCal/Mol        Cal/Mol-Kelvin    Cal/Mol-Kelvin
 Total                   97.644             30.276             89.999
 Electronic               0.000              0.000              0.000
 Translational            0.889              2.981             39.779
 Rotational               0.889              2.981             27.967
 Vibrational             95.867             24.315             22.253
 Vibration     1          0.595              1.977              4.800
 Vibration     2          0.599              1.965              4.000
 Vibration     3          0.630              1.864              2.309
 Vibration     4          0.651              1.797              1.888
 Vibration     5          0.672              1.734              1.618
 Vibration     6          0.699              1.655              1.363
 Vibration     7          0.714              1.612              1.252
 Vibration     8          0.753              1.505              1.024
 Vibration     9          0.775              1.448              0.925
 Vibration    10          0.800              1.382              0.826
 Vibration    11          0.896              1.161              0.564
 Vibration    12          0.957              1.033              0.451

 Optimization completed on the basis of negligible forces.
    -- Stationary point found.
 Normal termination of Gaussian 16 at Sun Sep 29 09:32:09 2019.
