 Gaussian 16, Revision A.03,
 Gaussian 16:  EM64L-G16RevA.03 25-Dec-2016

 ----------------------------------------------------------------------
 #p m062x/cc-pVTZ opt=(calcfc,maxcycles=900,Tight) freq IOP(7/33=1,2/16
 =3) scf=(maxcycle=900)
 ----------------------------------------------------------------------

 ------------------------------
 Gaussian input prepared by ASE
 ------------------------------
 Symbolic Z-matrix:
 Charge =  0 Multiplicity = 1

 SCF Done:  E(RM062X) =  -346.924711610     A.U. after   13 cycles

  Exact polarizability:   0.000   0.000   0.000   0.000   0.000   0.000
 Approx polarizability:  94.283   0.532  66.158  -1.673  -3.338  77.004

 SCF Done:  E(RM062X) =  -346.938268536     A.U. after   14 cycles
 SCF Done:  E(RM062X) =  -346.938439713     A.U. after   13 cycles
 SCF Done:  E(RM062X) =  -346.940395285     A.U. after   13 cycles
 SCF Done:  E(RM062X) =  -346.946107860     A.U. after   14 cycles
 SCF Done:  E(RM062X) =  -346.946528139     A.U. after   13 cycles
 SCF Done:  E(RM062X) =  -346.947310523     A.U. after   11 cycles
 SCF Done:  E(RM062X) =  -346.947585706     A.U. after   10 cycles
 SCF Done:  E(RM062X) =  -346.948371808     A.U. after   11 cycles
 SCF Done:  E(RM062X) =  -346.949016856     A.U. after   11 cycles
 SCF Done:  E(RM062X) =  -346.949533455     A.U. after    9 cycles
 SCF Done:  E(RM062X) =  -346.949533993     A.U. after    7 cycles
 SCF Done:  E(RM062X) =  -346.949534323     A.U. after    8 cycles
 SCF Done:  E(RM062X) =  -346.949535123     A.U. after    9 cycles
 SCF Done:  E(RM062X) =  -346.949535447     A.U. after    7 cycles
 SCF Done:  E(RM062X) =  -346.949535478     A.U. after    5 cycles
 SCF Done:  E(RM062X) =  -346.949535495     A.U. after    5 cycles
 SCF Done:  E(RM062X) =  -346.949535499     A.U. after    4 cycles
 SCF Done:  E(RM062X) =  -346.949535502     A.U. after    3 cycles
 Optimization completed.
    -- Stationary point found.

 The electronic state is 1-A.
 Alpha  occ. eigenvalues --  -19.64449 -19.64208 -10.59928 -10.58483 -10.57298
 Alpha  occ. eigenvalues --  -10.53065 -10.52986  -1.19078  -1.16458  -0.89952
 Alpha  occ. eigenvalues --   -0.83090  -0.79072  -0.70572  -0.66670  -0.61272
 Alpha  occ. eigenvalues --   -0.58351  -0.53927  -0.52658  -0.50918  -0.46962
 Alpha  occ. eigenvalues --   -0.46169  -0.45783  -0.44998  -0.43892  -0.42445
 Alpha  occ. eigenvalues --   -0.39942  -0.36880  -0.27172
 Alpha virt. eigenvalues --    0.06206   0.07943   0.08233   0.10142   0.11279
 Alpha virt. eigenvalues --    0.11472   0.12453   0.14142   0.15717   0.16435
 Alpha virt. eigenvalues --    0.17801   0.18389   0.20272   0.22690   0.24780

 Mulliken charges:
               1
     1  O   -0.297769
     2  O   -0.350756
     3  C    0.022785
     4  C   -0.371524
     5  C   -0.337690
     6  C   -0.097203
     7  C    0.011918
     8  H    0.129573
     9  H    0.125992
    10  H    0.139477
    11  H    0.126751
    12  H    0.119402
    13  H    0.126986
    14  H    0.109560
    15  H    0.122639
    16  H    0.153536
    17  H    0.266324
 Sum of Mulliken charges =  -0.00000

 Dipole moment (field-independent basis, Debye):
    X=             -1.8741    Y=             -0.3532    Z=              1.0680  Tot=              2.1858
 Quadrupole moment (field-independent basis, Debye-Ang):
   XX=            -44.5986   YY=            -45.9389   ZZ=            -41.3016
   XY=              0.9257   XZ=              2.6562   YZ=              0.7818

 Normal termination of Gaussian 16 at Sun Sep 29 14:54:09 2019.

 ----------------------------------------------------------------------
 #P Geom=AllCheck Guess=TCheck SCRF=Check Test GenChk RM062X/CC-pVTZ Fr
 eq
 ----------------------------------------------------------------------

 Structure from the checkpoint file:  "/scratch/harms.n/gauss_scrdir/Gau-38701.chk"
 ------------------------------
 Gaussian input prepared by ASE
 ------------------------------
 Charge =  0 Multiplicity = 1

                         Standard orientation:
 ---------------------------------------------------------------------
 Center     Atomic      Atomic             Coordinates (Angstroms)
 Number     Number       Type             X           Y           Z
 ---------------------------------------------------------------------
      1          8           0       -0.078766    0.681125   -0.101308
      2          8           0        2.346370   -0.324979   -0.925914
      3          6           0       -1.295939    0.066431    0.336557
      4          6           0       -1.174594   -1.445406    0.275442
      5          6           0       -2.393937    0.600799   -0.556691
      6          6           0        0.969199    0.562786    0.778070
      7          6           0        2.133190    0.099124    0.344556
      8          1           0       -1.475693    0.378843    1.372043
      9          1           0       -1.019725   -1.762597   -0.757068
     10          1           0       -0.332262   -1.790033    0.874411
     11          1           0       -2.082449   -1.918184    0.649511
     12          1           0       -2.197102    0.319600   -1.591723
     13          1           0       -2.441718    1.686425   -0.496267
     14          1           0       -3.357823    0.186756   -0.263150
     15          1           0        0.811053    0.896382    1.795604
     16          1           0        3.006400    0.044630    0.975929
     17          1           0        1.520975   -0.193394   -1.409114
 ---------------------------------------------------------------------

 SCF Done:  E(RM062X) =  -346.949535502     A.U. after    1 cycles
