 Gaussian 16, Revision A.03,
 Gaussian 16:  EM64L-G16RevA.03 25-Dec-2016

 ----------------------------------------------------------------------
 #p m062x/cc-pVTZ opt=(calcfc,maxcycles=900,Tight) freq IOP(7/33=1,2/16
 =3) scf=(maxcycle=900)
 ----------------------------------------------------------------------

 ------------------------------
 Gaussian input prepared by ASE
 ------------------------------
 Symbolic Z-matrix:
 Charge =  0 Multiplicity = 1

 SCF Done:  E(RM062X) =  -346.926183172     A.U. after   13 cycles
 SCF Done:  E(RM062X) =  -346.936668961     A.U. after   12 cycles
 SCF Done:  E(RM062X) =  -346.936443511     A.U. after   12 cycles
 SCF Done:  E(RM062X) =  -346.937010312     A.U. after   11 cycles
 SCF Done:  E(RM062X) =  -346.937025505     A.U. after   10 cycles
 SCF Done:  E(RM062X) =  -346.937053166     A.U. after   10 cycles
 SCF Done:  E(RM062X) =  -346.937068466     A.U. after   10 cycles
 SCF Done:  E(RM062X) =  -346.937070465     A.U. after   10 cycles
 SCF Done:  E(RM062X) =  -346.937073232     A.U. after    9 cycles
 SCF Done:  E(RM062X) =  -346.937074414     A.U. after    9 cycles
 SCF Done:  E(RM062X) =  -346.937074551     A.U. after    9 cycles
 SCF Done:  E(RM062X) =  -346.937074648     A.U. after    8 cycles
 SCF Done:  E(RM062X) =  -346.937074665     A.U. after    7 cycles
 SCF Done:  E(RM062X) =  -346.937074664     A.U. after    5 cycles
 SCF Done:  E(RM062X) =  -346.937074662     A.U. after    4 cycles
 SCF Done:  E(RM062X) =  -346.937074662     A.U. after    3 cycles
 SCF Done:  E(RM062X) =  -346.937074661     A.U. after    5 cycles
 SCF Done:  E(RM062X) =  -346.937074662     A.U. after    4 cycles
 Optimization completed.
    -- Stationary point found.
 Normal termination of Gaussian 16 at Sat Sep 28 17:01:03 2019.

 ----------------------------------------------------------------------
 #P Geom=AllCheck Guess=TCheck SCRF=Check Test GenChk RM062X/CC-pVTZ Fr
 eq
 ----------------------------------------------------------------------

 Structure from the checkpoint file:  "/scratch/harms.n/gauss_scrdir/Gau-13653.chk"
 ------------------------------
 Gaussian input prepared by ASE
 ------------------------------
 Charge =  0 Multiplicity = 1

                         Standard orientation:
 ---------------------------------------------------------------------
 Center     Atomic      Atomic             Coordinates (Angstroms)
 Number     Number       Type             X           Y           Z
 ---------------------------------------------------------------------
      1          8           0        0.359799    1.329637    0.002383
      2          8           0       -1.473294   -1.228158    0.005679
      3          6           0        1.303379    0.253217   -0.000333
      4          6           0        1.230837   -0.562920   -1.279928
      5          6           0        1.232971   -0.567335    1.276596
      6          6           0       -0.980305    1.152920    0.000452
      7          6           0       -1.802984    0.106928    0.000107
      8          1           0        2.250405    0.794657   -0.000199
      9          1           0        0.317033   -1.148872   -1.329778
     10          1           0        1.281292    0.098661   -2.144091
     11          1           0        2.080276   -1.245607   -1.320050
     12          1           0        0.318640   -1.152386    1.327605
     13          1           0        1.286863    0.091268    2.142812
     14          1           0        2.081622   -1.251275    1.312029
     15          1           0       -1.472961    2.115738    0.001203
     16          1           0       -2.859829    0.334278    0.000842
     17          1           0       -2.278775   -1.745156   -0.036235
 ---------------------------------------------------------------------

 SCF Done:  E(RM062X) =  -346.937074662     A.U. after    1 cycles

 The electronic state is 1-A.
 Alpha  occ. eigenvalues --  -19.65127 -19.63777 -10.58737 -10.58133 -10.58001
 Alpha  occ. eigenvalues --  -10.51402 -10.51386  -1.18339  -1.16848  -0.88804
 Alpha  occ. eigenvalues --   -0.83793  -0.77736  -0.71764  -0.64916  -0.60033
 Alpha  occ. eigenvalues --   -0.57383  -0.53946  -0.51527  -0.49989  -0.48612
 Alpha  occ. eigenvalues --   -0.47317  -0.43572  -0.43370  -0.42272  -0.40331
 Alpha  occ. eigenvalues --   -0.38515  -0.36985  -0.26107
 Alpha virt. eigenvalues --    0.04895   0.08158   0.09496   0.10220   0.12444
 Alpha virt. eigenvalues --    0.13138   0.13437   0.14760   0.16989   0.17307
 Alpha virt. eigenvalues --    0.19357   0.19648   0.20397   0.22708   0.27107

 Mulliken charges:
               1
     1  O   -0.245256
     2  O   -0.335946
     3  C    0.002355
     4  C   -0.378658
     5  C   -0.378139
     6  C   -0.061850
     7  C   -0.059506
     8  H    0.148471
     9  H    0.147417
    10  H    0.126828
    11  H    0.114170
    12  H    0.148477
    13  H    0.126549
    14  H    0.113802
    15  H    0.152893
    16  H    0.119524
    17  H    0.258870
 Sum of Mulliken charges =   0.00000

 Dipole moment (field-independent basis, Debye):
    X=             -1.4335    Y=             -1.3128    Z=             -0.0680  Tot=              1.9450
 Quadrupole moment (field-independent basis, Debye-Ang):
   XX=            -34.6729   YY=            -43.3476   ZZ=            -45.8569
   XY=              1.7672   XZ=              0.1723   YZ=              0.1407

  Exact polarizability:  76.462   2.161  66.927   0.068   0.059  57.347
 Approx polarizability:  85.767   7.900  85.324   0.095   0.059  65.913

                      1                      2                      3
                      A                      A                      A
 Frequencies --     35.5521                70.4093               166.6885
 Red. masses --      3.2695                 1.1805                 1.6693
 Frc consts  --      0.0024                 0.0034                 0.0273
 IR Inten    --     11.9522                86.8522                 2.5173

                      4                      5                      6
                      A                      A                      A
 Frequencies --    201.3042               220.7892               231.8738
 Red. masses --      2.0193                 1.3577                 1.8723
 Frc consts  --      0.0482                 0.0390                 0.0593
 IR Inten    --      1.1213                 2.1033                 1.1774

                      7                      8                      9
                      A                      A                      A
 Frequencies --    262.0232               367.1174               412.4774
 Red. masses --      2.6105                 2.3442                 3.1800
 Frc consts  --      0.1056                 0.1861                 0.3188
 IR Inten    --      1.1192                 0.9316                 6.6396

                     10                     11                     12
                      A                      A                      A
 Frequencies --    543.1908               547.9859               746.2356
 Red. masses --      2.4875                 4.5993                 1.3157
 Frc consts  --      0.4324                 0.8137                 0.4317
 IR Inten    --      1.6298                 5.0970                45.4888

                     13                     14                     15
                      A                      A                      A
 Frequencies --    780.3179               819.6974               915.6867
 Red. masses --      3.6384                 3.9353                 2.6555
 Frc consts  --      1.3053                 1.5579                 1.3119
 IR Inten    --     13.3262                36.1000                 2.1492

                     16                     17                     18
                      A                      A                      A
 Frequencies --    924.8426               939.3395               954.5686
 Red. masses --      1.2073                 1.2803                 1.2781
 Frc consts  --      0.6084                 0.6656                 0.6862
 IR Inten    --      1.1391                 0.5786                 0.5080

                     19                     20                     21
                      A                      A                      A
 Frequencies --   1023.5277              1152.8728              1176.4949
 Red. masses --      2.6699                 1.9305                 2.1908
 Frc consts  --      1.6480                 1.5117                 1.7866
 IR Inten    --     46.8597                31.4019                12.7046

                     22                     23                     24
                      A                      A                      A
 Frequencies --   1208.9284              1217.4538              1275.2432
 Red. masses --      2.0959                 2.9190                 1.3055
 Frc consts  --      1.8048                 2.5491                 1.2509
 IR Inten    --     73.9862               163.1219               101.8843

                     25                     26                     27
                      A                      A                      A
 Frequencies --   1378.3252              1387.4914              1408.1006
 Red. masses --      1.2542                 1.1988                 1.4103
 Frc consts  --      1.4038                 1.3597                 1.6475
 IR Inten    --      0.0226                43.0967                26.3346

                     28                     29                     30
                      A                      A                      A
 Frequencies --   1414.5993              1424.5640              1458.7838
 Red. masses --      1.2747                 1.2250                 1.3639
 Frc consts  --      1.5029                 1.4647                 1.7100
 IR Inten    --     54.4095                 4.3238                43.6413

                     31                     32                     33
                      A                      A                      A
 Frequencies --   1485.3824              1501.6046              1503.0099
 Red. masses --      1.0488                 1.0570                 1.0555
 Frc consts  --      1.3634                 1.4043                 1.4048
 IR Inten    --      0.1462                 2.6564                 0.0298

                     34                     35                     36
                      A                      A                      A
 Frequencies --   1519.7273              1803.6353              3070.7643
 Red. masses --      1.0647                 6.8916                 1.0378
 Frc consts  --      1.4488                13.2090                 5.7657
 IR Inten    --      0.7135                78.8146                22.8467

                     37                     38                     39
                      A                      A                      A
 Frequencies --   3073.0101              3080.2535              3136.9948
 Red. masses --      1.0474                 1.0759                 1.1014
 Frc consts  --      5.8278                 6.0142                 6.3860
 IR Inten    --      7.3592                38.3190                11.4832

                     40                     41                     42
                      A                      A                      A
 Frequencies --   3139.3298              3178.0155              3181.1252
 Red. masses --      1.1016                 1.0996                 1.0990
 Frc consts  --      6.3968                 6.5430                 6.5524
 IR Inten    --     24.8253                 0.0187                 6.5583

                     43                     44                     45
                      A                      A                      A
 Frequencies --   3203.4496              3225.0247              3923.8663
 Red. masses --      1.0853                 1.0956                 1.0669
 Frc consts  --      6.5619                 6.7137                 9.6788
 IR Inten    --      0.7438                17.2164               112.4047

 - Thermochemistry -
 -------------------
 Temperature   298.150 Kelvin.  Pressure   1.00000 Atm.
 Atom     1 has atomic number  8 and mass  15.99491

 Molecular mass:   102.06808 amu.
 Principal axes and moments of inertia in atomic units:
                           1         2         3
     Eigenvalues --   522.55284 831.30559 957.27759
           X            0.99891  -0.04675   0.00055
           Y            0.04675   0.99891   0.00138
           Z           -0.00062  -0.00136   1.00000
 This molecule is an asymmetric top.
 Rotational symmetry number  1.
 Warning -- assumption of classical behavior for rotation
           may cause significant error
 Rotational temperatures (Kelvin)      0.16575     0.10419     0.09048
 Rotational constants (GHZ):           3.45370     2.17097     1.88529
 Zero-point vibrational energy     386942.2 (Joules/Mol)
                                   92.48140 (Kcal/Mol)
 Warning -- explicit consideration of  11 degrees of freedom as
           vibrations may cause significant error
 Vibrational temperatures:     51.15   101.30   239.83   289.63   317.67
          (Kelvin)            333.61   376.99   528.20   593.46   781.53
                              788.43  1073.67  1122.70  1179.36  1317.47
                             1330.64  1351.50  1373.41  1472.63  1658.73
                             1692.71  1739.38  1751.64  1834.79  1983.10
                             1996.29  2025.94  2035.29  2049.63  2098.86
                             2137.13  2160.47  2162.50  2186.55  2595.03
                             4418.14  4421.38  4431.80  4513.44  4516.80
                             4572.46  4576.93  4609.05  4640.09  5645.57

 Zero-point correction=                           0.147378 (Hartree/Particle)
 Thermal correction to Energy=                    0.156202
 Thermal correction to Enthalpy=                  0.157146
 Thermal correction to Gibbs Free Energy=         0.113570
 Sum of electronic and zero-point Energies=           -346.789696
 Sum of electronic and thermal Energies=              -346.780872
 Sum of electronic and thermal Enthalpies=            -346.779928
 Sum of electronic and thermal Free Energies=         -346.823505

                     E (Thermal)             CV                S
                      KCal/Mol        Cal/Mol-Kelvin    Cal/Mol-Kelvin
 Total                   98.018             30.429             91.714
 Electronic               0.000              0.000              0.000
 Translational            0.889              2.981             39.779
 Rotational               0.889              2.981             27.522
 Vibrational             96.241             24.467             24.413
 Vibration     1          0.594              1.982              5.493
 Vibration     2          0.598              1.968              4.142
 Vibration     3          0.624              1.883              2.472
 Vibration     4          0.638              1.838              2.121
 Vibration     5          0.648              1.809              1.953
 Vibration     6          0.653              1.792              1.864
 Vibration     7          0.669              1.742              1.648
 Vibration     8          0.740              1.540              1.092
 Vibration     9          0.776              1.443              0.918
 Vibration    10          0.898              1.155              0.558
 Vibration    11          0.903              1.144              0.548

 Optimization completed on the basis of negligible forces.
    -- Stationary point found.
 Normal termination of Gaussian 16 at Sat Sep 28 18:57:34 2019.
