 Gaussian 16, Revision A.03,
 Gaussian 16:  EM64L-G16RevA.03 25-Dec-2016

 ----------------------------------------------------------------------
 #p m062x/cc-pVTZ opt=(calcfc,maxcycles=900,Tight) freq IOP(7/33=1,2/16
 =3) scf=(maxcycle=900)
 ----------------------------------------------------------------------

 ------------------------------
 Gaussian input prepared by ASE
 ------------------------------
 Symbolic Z-matrix:
 Charge =  0 Multiplicity = 1

 SCF Done:  E(RM062X) =  -346.914963064     A.U. after   13 cycles
 SCF Done:  E(RM062X) =  -346.927712142     A.U. after   14 cycles
 SCF Done:  E(RM062X) =  -346.907726449     A.U. after   12 cycles
 SCF Done:  E(RM062X) =  -346.927383750     A.U. after   12 cycles
 SCF Done:  E(RM062X) =  -346.927832785     A.U. after   10 cycles
 SCF Done:  E(RM062X) =  -346.930210484     A.U. after   12 cycles
 SCF Done:  E(RM062X) =  -346.918469920     A.U. after   12 cycles
 SCF Done:  E(RM062X) =  -346.931229115     A.U. after   11 cycles
 SCF Done:  E(RM062X) =  -346.932319456     A.U. after   12 cycles
 SCF Done:  E(RM062X) =  -346.933488187     A.U. after   12 cycles
 SCF Done:  E(RM062X) =  -346.933953650     A.U. after    7 cycles
 SCF Done:  E(RM062X) =  -346.933953661     A.U. after    7 cycles
 SCF Done:  E(RM062X) =  -346.933953669     A.U. after    6 cycles
 SCF Done:  E(RM062X) =  -346.933953678     A.U. after    5 cycles
 SCF Done:  E(RM062X) =  -346.933953679     A.U. after    5 cycles
 SCF Done:  E(RM062X) =  -346.933953682     A.U. after    5 cycles
 SCF Done:  E(RM062X) =  -346.933953681     A.U. after    5 cycles
 SCF Done:  E(RM062X) =  -346.933953680     A.U. after    4 cycles
 SCF Done:  E(RM062X) =  -346.933953680     A.U. after    3 cycles
 Optimization completed.
    -- Stationary point found.
 Normal termination of Gaussian 16 at Sat Sep 28 22:12:42 2019.

 ----------------------------------------------------------------------
 #P Geom=AllCheck Guess=TCheck SCRF=Check Test GenChk RM062X/CC-pVTZ Fr
 eq
 ----------------------------------------------------------------------

 Structure from the checkpoint file:  "/scratch/harms.n/gauss_scrdir/Gau-28797.chk"
 ------------------------------
 Gaussian input prepared by ASE
 ------------------------------
 Charge =  0 Multiplicity = 1

                         Standard orientation:
 ---------------------------------------------------------------------
 Center     Atomic      Atomic             Coordinates (Angstroms)
 Number     Number       Type             X           Y           Z
 ---------------------------------------------------------------------
      1          8           0       -0.343133    1.328873   -0.000095
      2          8           0        1.608033   -1.280447   -0.000000
      3          6           0       -1.282677    0.262575    0.000016
      4          6           0       -1.231324   -0.537804    1.297271
      5          6           0       -1.231450   -0.537943   -1.297160
      6          6           0        1.005051    1.128023   -0.000044
      7          6           0        1.815778    0.070467   -0.000009
      8          1           0       -2.237011    0.790559    0.000035
      9          1           0       -0.260219   -0.986637    1.501624
     10          1           0       -1.450467    0.124929    2.133027
     11          1           0       -1.982270   -1.327509    1.278958
     12          1           0       -1.982301   -1.327735   -1.278646
     13          1           0       -0.260322   -0.986679   -1.501624
     14          1           0       -1.450797    0.124671   -2.132957
     15          1           0        1.506268    2.085274   -0.000045
     16          1           0        2.872621    0.291074    0.000027
     17          1           0        0.673035   -1.487255   -0.000079
 ---------------------------------------------------------------------

 SCF Done:  E(RM062X) =  -346.933953680     A.U. after    1 cycles

 The electronic state is 1-A.
 Alpha  occ. eigenvalues --  -19.64714 -19.64682 -10.60666 -10.58262 -10.58132
 Alpha  occ. eigenvalues --  -10.53926 -10.53925  -1.18740  -1.17151  -0.90355
 Alpha  occ. eigenvalues --   -0.83889  -0.80284  -0.73762  -0.66104  -0.61213
 Alpha  occ. eigenvalues --   -0.57707  -0.53226  -0.53136  -0.50205  -0.49791
 Alpha  occ. eigenvalues --   -0.48317  -0.45697  -0.45434  -0.44066  -0.41475
 Alpha  occ. eigenvalues --   -0.39926  -0.38330  -0.26429
 Alpha virt. eigenvalues --    0.05514   0.09303   0.09564   0.10121   0.10694
 Alpha virt. eigenvalues --    0.11111   0.13636   0.14762   0.15163   0.15747
 Alpha virt. eigenvalues --    0.16885   0.17320   0.19089   0.24398   0.25043

 Mulliken charges:
               1
     1  O   -0.247040
     2  O   -0.335580
     3  C   -0.011515
     4  C   -0.384864
     5  C   -0.384854
     6  C   -0.073276
     7  C   -0.085337
     8  H    0.156269
     9  H    0.131936
    10  H    0.139029
    11  H    0.126600
    12  H    0.126602
    13  H    0.131924
    14  H    0.139026
    15  H    0.157218
    16  H    0.156789
    17  H    0.257073
 Sum of Mulliken charges =  -0.00000

 Dipole moment (field-independent basis, Debye):
    X=             -1.7821    Y=             -0.4973    Z=              0.0000  Tot=              1.8502
 Quadrupole moment (field-independent basis, Debye-Ang):
   XX=            -42.0835   YY=            -45.6829   ZZ=            -44.6810
   XY=              4.5122   XZ=              0.0000   YZ=              0.0004

  Exact polarizability:  75.076  -0.626  65.815   0.000  -0.000  57.539
 Approx polarizability:  85.701  -6.865  85.279   0.001  -0.000  66.459

 ******    1 imaginary frequencies (negative Signs) ******

                      1                      2                      3
                      A                      A                      A
 Frequencies --    -18.4913               128.5751               130.2140
 Red. masses --      1.8790                 1.7281                 1.5495
 Frc consts  --      0.0004                 0.0168                 0.0155
 IR Inten    --      0.5914                24.4296                 0.9419

                      4                      5                      6
                      A                      A                      A
 Frequencies --    154.7709               233.1776               263.8605
 Red. masses --      1.8623                 2.3489                 2.6502
 Frc consts  --      0.0263                 0.0752                 0.1087
 IR Inten    --      4.0067                 1.0143                 1.5796

                      7                      8                      9
                      A                      A                      A
 Frequencies --    375.4934               386.4736               415.7442
 Red. masses --      2.4191                 1.3625                 2.2996
 Frc consts  --      0.2010                 0.1199                 0.2342
 IR Inten    --      1.5645                91.8097                 2.3346

                     10                     11                     12
                      A                      A                      A
 Frequencies --    543.7591               557.7617               778.4306
 Red. masses --      4.7445                 2.4152                 1.3261
 Frc consts  --      0.8265                 0.4427                 0.4734
 IR Inten    --      2.4670                 3.0145                37.6757

                     13                     14                     15
                      A                      A                      A
 Frequencies --    781.8209               811.7123               905.3545
 Red. masses --      3.7875                 3.0710                 2.9129
 Frc consts  --      1.3640                 1.1922                 1.4067
 IR Inten    --      5.2005                 3.1001                 2.3103

                     16                     17                     18
                      A                      A                      A
 Frequencies --    934.8156               936.6897               967.0001
 Red. masses --      1.2177                 1.4180                 1.1533
 Frc consts  --      0.6270                 0.7330                 0.6354
 IR Inten    --      0.2225                 0.3187                 0.3356

                     19                     20                     21
                      A                      A                      A
 Frequencies --   1015.6492              1137.2818              1178.7097
 Red. masses --      2.6691                 1.9401                 2.3369
 Frc consts  --      1.6222                 1.4785                 1.9130
 IR Inten    --     76.3998               134.4603                19.1730

                     22                     23                     24
                      A                      A                      A
 Frequencies --   1192.4583              1209.7213              1273.0813
 Red. masses --      1.9489                 2.3633                 1.7600
 Frc consts  --      1.6328                 2.0377                 1.6807
 IR Inten    --     26.6272               144.6687                38.0948

                     25                     26                     27
                      A                      A                      A
 Frequencies --   1387.6362              1396.0459              1414.2395
 Red. masses --      1.2304                 1.1507                 1.3295
 Frc consts  --      1.3958                 1.3214                 1.5667
 IR Inten    --      0.8182                 9.1060                20.7273

                     28                     29                     30
                      A                      A                      A
 Frequencies --   1417.0983              1428.5875              1451.3464
 Red. masses --      1.2522                 1.2287                 1.3341
 Frc consts  --      1.4816                 1.4774                 1.6557
 IR Inten    --     42.1689                 5.5839                42.0188

                     31                     32                     33
                      A                      A                      A
 Frequencies --   1482.8170              1491.4497              1518.1397
 Red. masses --      1.0683                 1.0597                 1.0484
 Frc consts  --      1.3839                 1.3888                 1.4236
 IR Inten    --      0.0196                 9.9642                 0.2330

                     34                     35                     36
                      A                      A                      A
 Frequencies --   1535.3235              1782.1044              3072.8113
 Red. masses --      1.0632                 8.0295                 1.0361
 Frc consts  --      1.4766                15.0247                 5.7642
 IR Inten    --      2.2728                89.2189                 9.7857

                     37                     38                     39
                      A                      A                      A
 Frequencies --   3076.2824              3081.3583              3145.5119
 Red. masses --      1.0365                 1.0865                 1.1020
 Frc consts  --      5.7795                 6.0783                 6.4242
 IR Inten    --      8.0957                14.7341                 7.9539

                     40                     41                     42
                      A                      A                      A
 Frequencies --   3147.7113              3148.8560              3154.3470
 Red. masses --      1.1020                 1.1014                 1.1006
 Frc consts  --      6.4332                 6.4346                 6.4522
 IR Inten    --     12.9190                 0.2887                33.0528

                     43                     44                     45
                      A                      A                      A
 Frequencies --   3219.3644              3241.9336              3926.5475
 Red. masses --      1.0860                 1.0943                 1.0650
 Frc consts  --      6.6313                 6.7761                 9.6743
 IR Inten    --      2.3277                10.9942                73.6755

 - Thermochemistry -
 -------------------
 Temperature   298.150 Kelvin.  Pressure   1.00000 Atm.
 Atom     1 has atomic number  8 and mass  15.99491

 Molecular mass:   102.06808 amu.
 Principal axes and moments of inertia in atomic units:
                           1         2         3
     Eigenvalues --   525.91751 846.91643 962.88829
           X            0.99722   0.07449   0.00000
           Y           -0.07449   0.99722   0.00002
           Z           -0.00000  -0.00002   1.00000
 This molecule is an asymmetric top.
 Rotational symmetry number  1.
 Warning -- assumption of classical behavior for rotation
           may cause significant error
 Rotational temperatures (Kelvin)      0.16469     0.10227     0.08995
 Rotational constants (GHZ):           3.43161     2.13096     1.87430
    1 imaginary frequencies ignored.
 Zero-point vibrational energy     387781.9 (Joules/Mol)
                                   92.68209 (Kcal/Mol)
 Warning -- explicit consideration of  10 degrees of freedom as
           vibrations may cause significant error
 Vibrational temperatures:    184.99   187.35   222.68   335.49   379.64
          (Kelvin)            540.25   556.05   598.16   782.35   802.49
                             1119.99  1124.87  1167.87  1302.60  1344.99
                             1347.69  1391.30  1461.29  1636.29  1695.90
                             1715.68  1740.52  1831.68  1996.50  2008.60
                             2034.78  2038.89  2055.42  2088.16  2133.44
                             2145.86  2184.26  2208.99  2564.05  4421.09
                             4426.08  4433.39  4525.69  4528.85  4530.50
                             4538.40  4631.95  4664.42  5649.43

 Zero-point correction=                           0.147698 (Hartree/Particle)
 Thermal correction to Energy=                    0.155449
 Thermal correction to Enthalpy=                  0.156393
 Thermal correction to Gibbs Free Energy=         0.116012
 Sum of electronic and zero-point Energies=           -346.786255
 Sum of electronic and thermal Energies=              -346.778505
 Sum of electronic and thermal Enthalpies=            -346.777561
 Sum of electronic and thermal Free Energies=         -346.817942

                     E (Thermal)             CV                S
                      KCal/Mol        Cal/Mol-Kelvin    Cal/Mol-Kelvin
 Total                   97.546             28.106             84.990
 Electronic               0.000              0.000              0.000
 Translational            0.889              2.981             39.779
 Rotational               0.889              2.981             27.552
 Vibrational             95.768             22.145             17.658
 Vibration     1          0.611              1.925              2.967
 Vibration     2          0.612              1.923              2.943
 Vibration     3          0.620              1.897              2.613
 Vibration     4          0.654              1.790              1.854
 Vibration     5          0.670              1.739              1.636
 Vibration     6          0.746              1.522              1.057
 Vibration     7          0.755              1.499              1.014
 Vibration     8          0.779              1.436              0.907
 Vibration     9          0.899              1.153              0.557
 Vibration    10          0.913              1.123              0.528

                           ! Non-Optimized Parameters !
 Normal termination of Gaussian 16 at Sun Sep 29 00:14:47 2019.
