 Gaussian 16, Revision A.03,
 Gaussian 16:  EM64L-G16RevA.03 25-Dec-2016

 ----------------------------------------------------------------------
 #p m062x/cc-pVTZ opt=(calcfc,maxcycles=900,Tight) freq IOP(7/33=1,2/16
 =3) scf=(maxcycle=900)
 ----------------------------------------------------------------------

 ------------------------------
 Gaussian input prepared by ASE
 ------------------------------
 Symbolic Z-matrix:
 Charge =  0 Multiplicity = 1

 SCF Done:  E(RM062X) =  -346.926672205     A.U. after   12 cycles
 SCF Done:  E(RM062X) =  -346.937651336     A.U. after   14 cycles
 SCF Done:  E(RM062X) =  -346.905501070     A.U. after   13 cycles
 SCF Done:  E(RM062X) =  -346.940644488     A.U. after   12 cycles
 SCF Done:  E(RM062X) =  -346.910862484     A.U. after   14 cycles
 SCF Done:  E(RM062X) =  -346.939135828     A.U. after   12 cycles
 SCF Done:  E(RM062X) =  -346.940653718     A.U. after    7 cycles
 SCF Done:  E(RM062X) =  -346.941257555     A.U. after   10 cycles
 SCF Done:  E(RM062X) =  -346.941324891     A.U. after   10 cycles
 SCF Done:  E(RM062X) =  -346.941342383     A.U. after   11 cycles
 SCF Done:  E(RM062X) =  -346.941423171     A.U. after   10 cycles
 SCF Done:  E(RM062X) =  -346.941427833     A.U. after   10 cycles
 SCF Done:  E(RM062X) =  -346.941428060     A.U. after    7 cycles
 SCF Done:  E(RM062X) =  -346.941428118     A.U. after    6 cycles
 SCF Done:  E(RM062X) =  -346.941428123     A.U. after    5 cycles
 SCF Done:  E(RM062X) =  -346.941428123     A.U. after    3 cycles
 SCF Done:  E(RM062X) =  -346.941428124     A.U. after    3 cycles
 SCF Done:  E(RM062X) =  -346.941428123     A.U. after    3 cycles
 SCF Done:  E(RM062X) =  -346.941428123     A.U. after    3 cycles
 Optimization completed.
    -- Stationary point found.
 Normal termination of Gaussian 16 at Sat Sep 28 17:25:01 2019.

 ----------------------------------------------------------------------
 #P Geom=AllCheck Guess=TCheck SCRF=Check Test GenChk RM062X/CC-pVTZ Fr
 eq
 ----------------------------------------------------------------------

 Structure from the checkpoint file:  "/scratch/harms.n/gauss_scrdir/Gau-31108.chk"
 ------------------------------
 Gaussian input prepared by ASE
 ------------------------------
 Charge =  0 Multiplicity = 1

                         Standard orientation:
 ---------------------------------------------------------------------
 Center     Atomic      Atomic             Coordinates (Angstroms)
 Number     Number       Type             X           Y           Z
 ---------------------------------------------------------------------
      1          8           0        0.088283   -0.546368   -0.183586
      2          8           0       -2.498533   -0.350985    0.846359
      3          6           0        1.370824    0.065272   -0.309555
      4          6           0        2.378686   -0.945999    0.191907
      5          6           0        1.416184    1.367456    0.470645
      6          6           0       -0.913781    0.094830   -0.840011
      7          6           0       -2.149920    0.166391   -0.367482
      8          1           0        1.549692    0.268739   -1.373358
      9          1           0        2.308843   -1.869726   -0.379547
     10          1           0        3.390199   -0.550820    0.105183
     11          1           0        2.179990   -1.171653    1.239695
     12          1           0        1.228949    1.167305    1.526056
     13          1           0        0.655567    2.060941    0.112794
     14          1           0        2.392653    1.840939    0.369293
     15          1           0       -0.677818    0.522405   -1.808759
     16          1           0       -2.924883    0.628910   -0.963309
     17          1           0       -3.433146   -0.205923    0.996751
 ---------------------------------------------------------------------

 SCF Done:  E(RM062X) =  -346.941428123     A.U. after    1 cycles

 The electronic state is 1-A.
 Alpha  occ. eigenvalues --  -19.64155 -19.63265 -10.59039 -10.57932 -10.57059
 Alpha  occ. eigenvalues --  -10.52158 -10.52149  -1.18122  -1.16350  -0.89294
 Alpha  occ. eigenvalues --   -0.83075  -0.78234  -0.68644  -0.66274  -0.61659
 Alpha  occ. eigenvalues --   -0.56619  -0.54243  -0.52589  -0.50282  -0.46562
 Alpha  occ. eigenvalues --   -0.45749  -0.45020  -0.43094  -0.42781  -0.41845
 Alpha  occ. eigenvalues --   -0.38989  -0.36568  -0.26057
 Alpha virt. eigenvalues --    0.05736   0.07899   0.08489   0.10043   0.11603
 Alpha virt. eigenvalues --    0.12166   0.12999   0.14827   0.16414   0.17235
 Alpha virt. eigenvalues --    0.18015   0.18746   0.21254   0.23613   0.25900

 Mulliken charges:
               1
     1  O   -0.245595
     2  O   -0.309206
     3  C    0.006433
     4  C   -0.340863
     5  C   -0.346215
     6  C   -0.074128
     7  C   -0.014190
     8  H    0.122392
     9  H    0.123870
    10  H    0.104458
    11  H    0.125228
    12  H    0.130556
    13  H    0.123417
    14  H    0.117810
    15  H    0.127286
    16  H    0.099485
    17  H    0.249260
 Sum of Mulliken charges =   0.00000

 Dipole moment (field-independent basis, Debye):
    X=             -0.7035    Y=              1.5188    Z=             -0.8665  Tot=              1.8848
 Quadrupole moment (field-independent basis, Debye-Ang):
   XX=            -31.1060   YY=            -45.9193   ZZ=            -43.1237
   XY=             -1.7295   XZ=             -0.6406   YZ=             -0.6101

  Exact polarizability:  89.922  -1.937  58.048  -2.963  -1.700  60.925
 Approx polarizability:  93.436  -1.211  68.255  -6.400  -3.107  75.290

                      1                      2                      3
                      A                      A                      A
 Frequencies --     31.2487                87.1096               140.2822
 Red. masses --      3.9047                 3.2349                 1.1639
 Frc consts  --      0.0022                 0.0145                 0.0135
 IR Inten    --      1.3737                 6.1018               106.4557

                      4                      5                      6
                      A                      A                      A
 Frequencies --    170.5944               208.6252               246.5866
 Red. masses --      3.2210                 1.0398                 1.1765
 Frc consts  --      0.0552                 0.0267                 0.0421
 IR Inten    --      0.5909                 0.0629                 0.1754

                      7                      8                      9
                      A                      A                      A
 Frequencies --    299.5120               359.0330               427.4795
 Red. masses --      3.2523                 2.3122                 2.9279
 Frc consts  --      0.1719                 0.1756                 0.3152
 IR Inten    --      0.9704                 0.2732                 5.2890

                     10                     11                     12
                      A                      A                      A
 Frequencies --    487.9961               569.7858               718.3851
 Red. masses --      2.3723                 3.4081                 3.4287
 Frc consts  --      0.3329                 0.6519                 1.0426
 IR Inten    --      1.8693                 2.9026                19.0401

                     13                     14                     15
                      A                      A                      A
 Frequencies --    767.4439               872.2566               901.5612
 Red. masses --      1.4196                 2.5003                 1.2925
 Frc consts  --      0.4926                 1.1208                 0.6190
 IR Inten    --     49.3919                 9.2693                 6.4132

                     16                     17                     18
                      A                      A                      A
 Frequencies --    935.7419               951.2071               971.0492
 Red. masses --      1.1724                 1.4670                 2.3486
 Frc consts  --      0.6049                 0.7820                 1.3048
 IR Inten    --      0.4017                 3.0139                22.7608

                     19                     20                     21
                      A                      A                      A
 Frequencies --   1082.7998              1160.6158              1177.7206
 Red. masses --      2.8264                 2.0853                 2.5015
 Frc consts  --      1.9524                 1.6550                 2.0443
 IR Inten    --     20.8546                34.8172               212.5436

                     22                     23                     24
                      A                      A                      A
 Frequencies --   1185.2275              1214.9038              1268.4413
 Red. masses --      2.1028                 2.0482                 1.2551
 Frc consts  --      1.7404                 1.7811                 1.1898
 IR Inten    --     59.2919                88.8902                73.7527

                     25                     26                     27
                      A                      A                      A
 Frequencies --   1321.7528              1373.1649              1380.6275
 Red. masses --      1.3948                 1.2872                 1.2479
 Frc consts  --      1.4357                 1.4300                 1.4014
 IR Inten    --     83.7728                 1.8107                67.1428

                     28                     29                     30
                      A                      A                      A
 Frequencies --   1408.3908              1419.6431              1449.5952
 Red. masses --      1.4548                 1.3267                 1.4915
 Frc consts  --      1.7002                 1.5754                 1.8465
 IR Inten    --     26.1256                42.0240                51.4377

                     31                     32                     33
                      A                      A                      A
 Frequencies --   1482.0728              1489.8841              1495.0440
 Red. masses --      1.0573                 1.0505                 1.0555
 Frc consts  --      1.3683                 1.3739                 1.3900
 IR Inten    --      0.7406                 0.0454                 5.4176

                     34                     35                     36
                      A                      A                      A
 Frequencies --   1513.8647              1813.9703              3009.1416
 Red. masses --      1.0615                 6.1206                 1.0836
 Frc consts  --      1.4333                11.8661                 5.7809
 IR Inten    --      7.6556                28.7323                40.2826

                     37                     38                     39
                      A                      A                      A
 Frequencies --   3063.4607              3070.6895              3139.5798
 Red. masses --      1.0346                 1.0350                 1.1031
 Frc consts  --      5.7205                 5.7501                 6.4060
 IR Inten    --     11.2150                12.8324                 6.1698

                     40                     41                     42
                      A                      A                      A
 Frequencies --   3141.9051              3147.2713              3153.6834
 Red. masses --      1.1024                 1.1021                 1.1030
 Frc consts  --      6.4118                 6.4322                 6.4637
 IR Inten    --     14.4377                32.4171                18.0159

                     43                     44                     45
                      A                      A                      A
 Frequencies --   3173.0708              3218.5833              3929.3402
 Red. masses --      1.0871                 1.0974                 1.0669
 Frc consts  --      6.4491                 6.6979                 9.7058
 IR Inten    --      9.3551                14.5773               118.4368

 - Thermochemistry -
 -------------------
 Temperature   298.150 Kelvin.  Pressure   1.00000 Atm.
 Atom     1 has atomic number  8 and mass  15.99491

 Molecular mass:   102.06808 amu.
 Principal axes and moments of inertia in atomic units:
                           1         2         3
     Eigenvalues --   332.201641321.619901385.08601
           X            0.99989  -0.00855   0.01186
           Y            0.00873   0.99985  -0.01487
           Z           -0.01173   0.01497   0.99982
 This molecule is an asymmetric top.
 Rotational symmetry number  1.
 Rotational temperatures (Kelvin)      0.26073     0.06554     0.06253
 Rotational constants (GHZ):           5.43267     1.36555     1.30298
 Zero-point vibrational energy     385379.0 (Joules/Mol)
                                   92.10780 (Kcal/Mol)
 Warning -- explicit consideration of  11 degrees of freedom as
           vibrations may cause significant error
 Vibrational temperatures:     44.96   125.33   201.83   245.45   300.17
          (Kelvin)            354.78   430.93   516.57   615.05   702.12
                              819.79  1033.60  1104.18  1254.98  1297.15
                             1346.32  1368.57  1397.12  1557.91  1669.87
                             1694.48  1705.28  1747.98  1825.00  1901.71
                             1975.68  1986.41  2026.36  2042.55  2085.64
                             2132.37  2143.61  2151.03  2178.11  2609.90
                             4329.48  4407.64  4418.04  4517.16  4520.50
                             4528.22  4537.45  4565.34  4630.82  5653.44

 Zero-point correction=                           0.146783 (Hartree/Particle)
 Thermal correction to Energy=                    0.155643
 Thermal correction to Enthalpy=                  0.156587
 Thermal correction to Gibbs Free Energy=         0.112689
 Sum of electronic and zero-point Energies=           -346.794645
 Sum of electronic and thermal Energies=              -346.785785
 Sum of electronic and thermal Enthalpies=            -346.784841
 Sum of electronic and thermal Free Energies=         -346.828739

                     E (Thermal)             CV                S
                      KCal/Mol        Cal/Mol-Kelvin    Cal/Mol-Kelvin
 Total                   97.667             30.449             92.391
 Electronic               0.000              0.000              0.000
 Translational            0.889              2.981             39.779
 Rotational               0.889              2.981             27.899
 Vibrational             95.890             24.487             24.712
 Vibration     1          0.594              1.983              5.749
 Vibration     2          0.601              1.958              3.724
 Vibration     3          0.615              1.913              2.800
 Vibration     4          0.626              1.879              2.429
 Vibration     5          0.642              1.828              2.056
 Vibration     6          0.661              1.768              1.755
 Vibration     7          0.692              1.675              1.420
 Vibration     8          0.734              1.557              1.126
 Vibration     9          0.789              1.410              0.867
 Vibration    10          0.844              1.277              0.689
 Vibration    11          0.926              1.097              0.505

                           ! Non-Optimized Parameters !
 Normal termination of Gaussian 16 at Sat Sep 28 19:09:56 2019.
