 Gaussian 16, Revision A.03,
 Gaussian 16:  EM64L-G16RevA.03 25-Dec-2016

 ----------------------------------------------------------------------
 #p m062x/cc-pVTZ opt=(calcfc,maxcycles=900,Tight) freq IOP(7/33=1,2/16
 =3) scf=(maxcycle=900)
 ----------------------------------------------------------------------

 ------------------------------
 Gaussian input prepared by ASE
 ------------------------------
 Symbolic Z-matrix:
 Charge =  0 Multiplicity = 1

 SCF Done:  E(RM062X) =  -346.920670218     A.U. after   13 cycles
 SCF Done:  E(RM062X) =  -346.934394551     A.U. after   13 cycles
 SCF Done:  E(RM062X) =  -346.934285395     A.U. after   12 cycles
 SCF Done:  E(RM062X) =  -346.934218392     A.U. after   12 cycles
 SCF Done:  E(RM062X) =  -346.933769229     A.U. after   12 cycles
 SCF Done:  E(RM062X) =  -346.934086195     A.U. after   11 cycles
 SCF Done:  E(RM062X) =  -346.934514676     A.U. after    8 cycles
 SCF Done:  E(RM062X) =  -346.935076912     A.U. after   12 cycles
 SCF Done:  E(RM062X) =  -346.935235854     A.U. after   12 cycles
 SCF Done:  E(RM062X) =  -346.935143982     A.U. after   11 cycles
 SCF Done:  E(RM062X) =  -346.935266043     A.U. after    4 cycles
 SCF Done:  E(RM062X) =  -346.935267424     A.U. after    8 cycles
 SCF Done:  E(RM062X) =  -346.935266043     A.U. after    8 cycles
 SCF Done:  E(RM062X) =  -346.935266044     A.U. after    4 cycles
 SCF Done:  E(RM062X) =  -346.935267426     A.U. after    8 cycles
 SCF Done:  E(RM062X) =  -346.935266042     A.U. after    8 cycles
 SCF Done:  E(RM062X) =  -346.935266042     A.U. after    4 cycles
 SCF Done:  E(RM062X) =  -346.935267401     A.U. after    8 cycles
 SCF Done:  E(RM062X) =  -346.935266042     A.U. after    8 cycles
 Optimization completed.
    -- Stationary point found.
 Normal termination of Gaussian 16 at Sun Sep 29 11:01:59 2019.

 ----------------------------------------------------------------------
 #P Geom=AllCheck Guess=TCheck SCRF=Check Test GenChk RM062X/CC-pVTZ Fr
 eq
 ----------------------------------------------------------------------

 Structure from the checkpoint file:  "/scratch/harms.n/gauss_scrdir/Gau-31171.chk"
 ------------------------------
 Gaussian input prepared by ASE
 ------------------------------
 Charge =  0 Multiplicity = 1

                         Standard orientation:
 ---------------------------------------------------------------------
 Center     Atomic      Atomic             Coordinates (Angstroms)
 Number     Number       Type             X           Y           Z
 ---------------------------------------------------------------------
      1          8           0       -0.419375   -0.001006   -1.219392
      2          8           0        2.805902    0.000477    0.563314
      3          6           0       -1.479815   -0.000223   -0.264422
      4          6           0       -1.523133    1.275453    0.564976
      5          6           0       -1.523114   -1.274531    0.567073
      6          6           0        0.887820   -0.000710   -0.848025
      7          6           0        1.449531    0.000326    0.355461
      8          1           0       -2.358564   -0.000757   -0.910239
      9          1           0       -0.740096    1.318277    1.318316
     10          1           0       -1.424547    2.144825   -0.083428
     11          1           0       -2.483354    1.333864    1.077578
     12          1           0       -0.740014   -1.316135    1.320416
     13          1           0       -1.424604   -2.144972   -0.079905
     14          1           0       -2.483297   -1.332068    1.079845
     15          1           0        1.522099   -0.001481   -1.728568
     16          1           0        0.913244    0.001162    1.288768
     17          1           0        3.259189   -0.000378   -0.284540
 ---------------------------------------------------------------------

 SCF Done:  E(RM062X) =  -346.935266042     A.U. after    1 cycles

 The electronic state is 1-A.
 Alpha  occ. eigenvalues --  -19.64302 -19.64157 -10.59859 -10.58201 -10.58055
 Alpha  occ. eigenvalues --  -10.52962 -10.52961  -1.18103  -1.16865  -0.89540
 Alpha  occ. eigenvalues --   -0.83593  -0.79075  -0.72539  -0.66808  -0.60697
 Alpha  occ. eigenvalues --   -0.56840  -0.52705  -0.52542  -0.49382  -0.49248
 Alpha  occ. eigenvalues --   -0.47572  -0.45740  -0.45567  -0.43390  -0.40943
 Alpha  occ. eigenvalues --   -0.39124  -0.38198  -0.25962
 Alpha virt. eigenvalues --    0.06700   0.06944   0.07674   0.08774   0.11951
 Alpha virt. eigenvalues --    0.12378   0.12831   0.14004   0.16576   0.17808
 Alpha virt. eigenvalues --    0.18144   0.19350   0.22106   0.23062   0.25311

 Mulliken charges:
               1
     1  O   -0.247389
     2  O   -0.353843
     3  C   -0.013661
     4  C   -0.378718
     5  C   -0.378713
     6  C   -0.080828
     7  C   -0.043142
     8  H    0.152050
     9  H    0.134454
    10  H    0.138755
    11  H    0.123238
    12  H    0.134457
    13  H    0.138752
    14  H    0.123236
    15  H    0.136310
    16  H    0.165223
    17  H    0.249818
 Sum of Mulliken charges =  -0.00000

 Dipole moment (field-independent basis, Debye):
    X=             -0.8123    Y=             -0.0004    Z=             -0.1772  Tot=              0.8314
 Quadrupole moment (field-independent basis, Debye-Ang):
   XX=            -40.0722   YY=            -45.1783   ZZ=            -44.7179
   XY=             -0.0061   XZ=             -6.2367   YZ=              0.0007

  Exact polarizability:  78.458   0.001  56.808   1.160   0.007  64.213
 Approx polarizability:  85.342   0.005  65.347   6.298   0.018  85.661

                      1                      2                      3
                      A                      A                      A
 Frequencies --     69.6829               104.7166               181.8772
 Red. masses --      2.2221                 1.3530                 3.7428
 Frc consts  --      0.0064                 0.0087                 0.0729
 IR Inten    --      4.2828                 6.4257                 3.9038

                      4                      5                      6
                      A                      A                      A
 Frequencies --    202.4724               222.6203               251.7538
 Red. masses --      1.1030                 1.4869                 1.3469
 Frc consts  --      0.0266                 0.0434                 0.0503
 IR Inten    --      0.8683                 3.2715                53.4642

                      7                      8                      9
                      A                      A                      A
 Frequencies --    307.4961               350.8230               381.6379
 Red. masses --      2.7350                 3.2377                 2.4807
 Frc consts  --      0.1524                 0.2348                 0.2129
 IR Inten    --      4.3085                21.2988                 3.4368

                     10                     11                     12
                      A                      A                      A
 Frequencies --    448.5165               483.1781               689.2354
 Red. masses --      4.0392                 2.7578                 4.5400
 Frc consts  --      0.4787                 0.3793                 1.2707
 IR Inten    --     14.6810                 5.4309                 4.2825

                     13                     14                     15
                      A                      A                      A
 Frequencies --    801.1891               842.3008               927.9490
 Red. masses --      2.8216                 1.8184                 1.2104
 Frc consts  --      1.0671                 0.7601                 0.6141
 IR Inten    --     10.4405                 0.4436                 6.3396

                     16                     17                     18
                      A                      A                      A
 Frequencies --    942.0465               942.9532               955.1908
 Red. masses --      2.2799                 1.3004                 1.1310
 Frc consts  --      1.1921                 0.6812                 0.6080
 IR Inten    --     19.9471                18.9153                38.5559

                     19                     20                     21
                      A                      A                      A
 Frequencies --   1125.8571              1160.3602              1161.0603
 Red. masses --      1.9134                 2.2193                 2.4168
 Frc consts  --      1.4289                 1.7606                 1.9196
 IR Inten    --     85.4817                15.5833               131.9789

                     22                     23                     24
                      A                      A                      A
 Frequencies --   1192.4428              1229.6411              1297.9073
 Red. masses --      1.9439                 3.7018                 2.0715
 Frc consts  --      1.6285                 3.2977                 2.0560
 IR Inten    --      6.2395               302.0988                68.9577

                     25                     26                     27
                      A                      A                      A
 Frequencies --   1352.8476              1378.8177              1398.2603
 Red. masses --      1.1973                 1.2791                 1.2022
 Frc consts  --      1.2911                 1.4328                 1.3848
 IR Inten    --     33.3820                 1.1217                 1.5618

                     28                     29                     30
                      A                      A                      A
 Frequencies --   1404.7447              1421.7887              1434.2824
 Red. masses --      1.3619                 1.2393                 1.2430
 Frc consts  --      1.5834                 1.4760                 1.5065
 IR Inten    --     21.9834                25.4362                32.3782

                     31                     32                     33
                      A                      A                      A
 Frequencies --   1488.2333              1491.2377              1500.0318
 Red. masses --      1.0466                 1.0652                 1.0581
 Frc consts  --      1.3658                 1.3956                 1.4028
 IR Inten    --      0.1265                 0.0025                 7.6150

                     34                     35                     36
                      A                      A                      A
 Frequencies --   1511.0202              1774.6024              3075.6867
 Red. masses --      1.0633                 5.8756                 1.0366
 Frc consts  --      1.4304                10.9020                 5.7778
 IR Inten    --      4.4002                 1.2812                14.0655

                     37                     38                     39
                      A                      A                      A
 Frequencies --   3078.7096              3085.9129              3144.4136
 Red. masses --      1.0386                 1.0846                 1.1014
 Frc consts  --      5.8003                 6.0851                 6.4160
 IR Inten    --      7.2075                17.5896                 6.2269

                     40                     41                     42
                      A                      A                      A
 Frequencies --   3146.5523              3163.6236              3166.6551
 Red. masses --      1.1018                 1.1011                 1.1002
 Frc consts  --      6.4274                 6.4928                 6.5004
 IR Inten    --     24.6264                 2.3211                35.6671

                     43                     44                     45
                      A                      A                      A
 Frequencies --   3172.8049              3282.0558              3872.0375
 Red. masses --      1.0902                 1.0921                 1.0656
 Frc consts  --      6.4660                 6.9310                 9.4126
 IR Inten    --     23.3461                 9.3872                46.6133

 - Thermochemistry -
 -------------------
 Temperature   298.150 Kelvin.  Pressure   1.00000 Atm.
 Atom     1 has atomic number  8 and mass  15.99491

 Molecular mass:   102.06808 amu.
 Principal axes and moments of inertia in atomic units:
                           1         2         3
     Eigenvalues --   407.230231206.142041217.93863
           X            0.99945  -0.03317   0.00000
           Y            0.00003   0.00103   1.00000
           Z            0.03317   0.99945  -0.00103
 This molecule is an asymmetric top.
 Rotational symmetry number  1.
 Rotational temperatures (Kelvin)      0.21269     0.07181     0.07112
 Rotational constants (GHZ):           4.43175     1.49629     1.48180
 Zero-point vibrational energy     386496.8 (Joules/Mol)
                                   92.37496 (Kcal/Mol)
 Warning -- explicit consideration of  11 degrees of freedom as
           vibrations may cause significant error
 Vibrational temperatures:    100.26   150.66   261.68   291.31   320.30
          (Kelvin)            362.22   442.42   504.76   549.09   645.32
                              695.19   991.66  1152.73  1211.88  1335.11
                             1355.39  1356.70  1374.31  1619.86  1669.50
                             1670.51  1715.66  1769.18  1867.40  1946.45
                             1983.81  2011.78  2021.11  2045.64  2063.61
                             2141.24  2145.56  2158.21  2174.02  2553.26
                             4425.23  4429.58  4439.94  4524.11  4527.19
                             4551.75  4556.11  4564.96  4722.15  5571.00

 Zero-point correction=                           0.147209 (Hartree/Particle)
 Thermal correction to Energy=                    0.155937
 Thermal correction to Enthalpy=                  0.156881
 Thermal correction to Gibbs Free Energy=         0.114152
 Sum of electronic and zero-point Energies=           -346.788057
 Sum of electronic and thermal Energies=              -346.779329
 Sum of electronic and thermal Enthalpies=            -346.778385
 Sum of electronic and thermal Free Energies=         -346.821114

                     E (Thermal)             CV                S
                      KCal/Mol        Cal/Mol-Kelvin    Cal/Mol-Kelvin
 Total                   97.852             30.640             89.931
 Electronic               0.000              0.000              0.000
 Translational            0.889              2.981             39.779
 Rotational               0.889              2.981             27.883
 Vibrational             96.075             24.678             22.269
 Vibration     1          0.598              1.969              4.162
 Vibration     2          0.605              1.945              3.365
 Vibration     3          0.630              1.864              2.309
 Vibration     4          0.639              1.836              2.111
 Vibration     5          0.648              1.807              1.938
 Vibration     6          0.664              1.760              1.718
 Vibration     7          0.697              1.659              1.376
 Vibration     8          0.728              1.574              1.162
 Vibration     9          0.751              1.509              1.033
 Vibration    10          0.808              1.364              0.800
 Vibration    11          0.839              1.287              0.702

 Optimization completed.
    -- Stationary point found.
 Normal termination of Gaussian 16 at Sun Sep 29 12:37:18 2019.
