 Gaussian 16, Revision A.03,
 Gaussian 16:  EM64L-G16RevA.03 25-Dec-2016

 ----------------------------------------------------------------------
 #p m062x/cc-pVTZ opt=(calcfc,maxcycles=900,Tight) freq IOP(7/33=1,2/16
 =3) scf=(maxcycle=900)
 ----------------------------------------------------------------------

 ------------------------------
 Gaussian input prepared by ASE
 ------------------------------
 Symbolic Z-matrix:
 Charge =  0 Multiplicity = 1

 SCF Done:  E(RM062X) =  -346.926387245     A.U. after   13 cycles
 SCF Done:  E(RM062X) =  -346.936232655     A.U. after   14 cycles
 SCF Done:  E(RM062X) =  -346.904438668     A.U. after   14 cycles
 SCF Done:  E(RM062X) =  -346.939825738     A.U. after   12 cycles
 SCF Done:  E(RM062X) =  -346.913177235     A.U. after   13 cycles
 SCF Done:  E(RM062X) =  -346.939110989     A.U. after   14 cycles
 SCF Done:  E(RM062X) =  -346.939885269     A.U. after   11 cycles
 SCF Done:  E(RM062X) =  -346.940523496     A.U. after   11 cycles
 SCF Done:  E(RM062X) =  -346.940652624     A.U. after   10 cycles
 SCF Done:  E(RM062X) =  -346.940269702     A.U. after   12 cycles
 SCF Done:  E(RM062X) =  -346.940785732     A.U. after    8 cycles
 SCF Done:  E(RM062X) =  -346.940785780     A.U. after    7 cycles
 SCF Done:  E(RM062X) =  -346.940785797     A.U. after    5 cycles
 SCF Done:  E(RM062X) =  -346.940785798     A.U. after    5 cycles
 SCF Done:  E(RM062X) =  -346.940785799     A.U. after    4 cycles
 SCF Done:  E(RM062X) =  -346.940785799     A.U. after    3 cycles
 SCF Done:  E(RM062X) =  -346.940785799     A.U. after    3 cycles
 SCF Done:  E(RM062X) =  -346.940785799     A.U. after    4 cycles
 SCF Done:  E(RM062X) =  -346.940785799     A.U. after    3 cycles
 Optimization completed.
    -- Stationary point found.
 Normal termination of Gaussian 16 at Sat Sep 28 17:09:45 2019.

 ----------------------------------------------------------------------
 #P Geom=AllCheck Guess=TCheck SCRF=Check Test GenChk RM062X/CC-pVTZ Fr
 eq
 ----------------------------------------------------------------------

 Structure from the checkpoint file:  "/scratch/harms.n/gauss_scrdir/Gau-32416.chk"
 ------------------------------
 Gaussian input prepared by ASE
 ------------------------------
 Charge =  0 Multiplicity = 1

                         Standard orientation:
 ---------------------------------------------------------------------
 Center     Atomic      Atomic             Coordinates (Angstroms)
 Number     Number       Type             X           Y           Z
 ---------------------------------------------------------------------
      1          8           0       -0.280723   -0.650307    0.179527
      2          8           0        3.221762    0.073831   -0.187696
      3          6           0       -1.424439    0.025036   -0.344114
      4          6           0       -1.459389    1.467463    0.129462
      5          6           0       -2.632538   -0.764123    0.111587
      6          6           0        0.906973   -0.247449   -0.355105
      7          6           0        1.998864   -0.159196    0.386762
      8          1           0       -1.359998    0.001635   -1.439225
      9          1           0       -1.520888    1.495224    1.218157
     10          1           0       -0.560241    2.000321   -0.178448
     11          1           0       -2.326207    1.983382   -0.283107
     12          1           0       -2.681282   -0.765243    1.200737
     13          1           0       -2.566878   -1.794550   -0.232694
     14          1           0       -3.547174   -0.318147   -0.277298
     15          1           0        0.932588   -0.066083   -1.426332
     16          1           0        1.964352   -0.338449    1.454760
     17          1           0        3.800593    0.483333    0.457250
 ---------------------------------------------------------------------

 SCF Done:  E(RM062X) =  -346.940785799     A.U. after    1 cycles

 The electronic state is 1-A.
 Alpha  occ. eigenvalues --  -19.64193 -19.63681 -10.59333 -10.57870 -10.57269
 Alpha  occ. eigenvalues --  -10.52522 -10.52515  -1.17877  -1.16854  -0.89648
 Alpha  occ. eigenvalues --   -0.82992  -0.78577  -0.68856  -0.66086  -0.61621
 Alpha  occ. eigenvalues --   -0.57246  -0.54555  -0.52626  -0.50767  -0.47674
 Alpha  occ. eigenvalues --   -0.45736  -0.45028  -0.43812  -0.42835  -0.40961
 Alpha  occ. eigenvalues --   -0.39572  -0.36977  -0.26432
 Alpha virt. eigenvalues --    0.06194   0.07358   0.07726   0.09797   0.11389
 Alpha virt. eigenvalues --    0.12466   0.13355   0.14518   0.15495   0.16833
 Alpha virt. eigenvalues --    0.18222   0.18524   0.20769   0.23642   0.25899

 Mulliken charges:
               1
     1  O   -0.261572
     2  O   -0.331417
     3  C    0.011180
     4  C   -0.355844
     5  C   -0.340968
     6  C   -0.048027
     7  C   -0.029916
     8  H    0.126719
     9  H    0.124346
    10  H    0.129728
    11  H    0.121447
    12  H    0.121479
    13  H    0.125704
    14  H    0.106415
    15  H    0.135018
    16  H    0.113489
    17  H    0.252219
 Sum of Mulliken charges =  -0.00000

 Dipole moment (field-independent basis, Debye):
    X=             -0.3374    Y=              1.3821    Z=              0.6896  Tot=              1.5810
 Quadrupole moment (field-independent basis, Debye-Ang):
   XX=            -37.9655   YY=            -45.6006   ZZ=            -41.8795
   XY=              2.2919   XZ=              6.2796   YZ=              0.5978

  Exact polarizability:  90.960   2.157  57.379   5.570   0.124  60.876
 Approx polarizability:  92.663   2.345  67.228   7.333  -0.161  77.084

                      1                      2                      3
                      A                      A                      A
 Frequencies --     62.2760                80.2229               156.2368
 Red. masses --      3.1598                 2.3440                 3.2743
 Frc consts  --      0.0072                 0.0089                 0.0471
 IR Inten    --      2.2726                 4.9238                 0.0553

                      4                      5                      6
                      A                      A                      A
 Frequencies --    185.8474               211.4324               257.1086
 Red. masses --      1.1726                 1.0312                 1.1032
 Frc consts  --      0.0239                 0.0272                 0.0430
 IR Inten    --    132.8174                 2.9493                 3.1860

                      7                      8                      9
                      A                      A                      A
 Frequencies --    323.3721               338.2674               372.6939
 Red. masses --      2.9730                 2.8466                 3.1946
 Frc consts  --      0.1832                 0.1919                 0.2614
 IR Inten    --     10.3946                 0.4776                 8.5480

                     10                     11                     12
                      A                      A                      A
 Frequencies --    468.6011               480.5110               605.1545
 Red. masses --      3.2920                 2.6104                 4.3089
 Frc consts  --      0.4259                 0.3551                 0.9297
 IR Inten    --      1.8369                 4.6206                 5.4965

                     13                     14                     15
                      A                      A                      A
 Frequencies --    845.6321               872.2917               936.0694
 Red. masses --      2.1786                 2.2054                 1.1666
 Frc consts  --      0.9179                 0.9887                 0.6023
 IR Inten    --      5.5325                 4.1865                 3.1257

                     16                     17                     18
                      A                      A                      A
 Frequencies --    939.4218               951.5275               974.9978
 Red. masses --      1.1252                 1.4248                 2.1981
 Frc consts  --      0.5851                 0.7601                 1.2312
 IR Inten    --     47.0962                 2.0817                13.9153

                     19                     20                     21
                      A                      A                      A
 Frequencies --   1145.5151              1167.3757              1185.1169
 Red. masses --      2.0707                 2.0561                 2.0407
 Frc consts  --      1.6009                 1.6509                 1.6887
 IR Inten    --     20.4739                11.5675                26.7795

                     22                     23                     24
                      A                      A                      A
 Frequencies --   1201.4647              1217.4615              1253.8678
 Red. masses --      2.3031                 2.9188                 1.5475
 Frc consts  --      1.9588                 2.5490                 1.4335
 IR Inten    --    138.9114               497.0741                 1.3415

                     25                     26                     27
                      A                      A                      A
 Frequencies --   1332.5134              1358.7814              1374.0154
 Red. masses --      1.3124                 1.4282                 1.3002
 Frc consts  --      1.3730                 1.5536                 1.4463
 IR Inten    --     14.1241                38.1814                 1.2074

                     28                     29                     30
                      A                      A                      A
 Frequencies --   1397.3530              1408.4863              1421.3190
 Red. masses --      1.2684                 1.4577                 1.3416
 Frc consts  --      1.4592                 1.7039                 1.5968
 IR Inten    --      5.4998                24.6380                23.1301

                     31                     32                     33
                      A                      A                      A
 Frequencies --   1482.9071              1489.5958              1495.7726
 Red. masses --      1.0572                 1.0498                 1.0544
 Frc consts  --      1.3697                 1.3725                 1.3899
 IR Inten    --      0.8068                 0.1228                 6.4891

                     34                     35                     36
                      A                      A                      A
 Frequencies --   1513.4884              1805.5705              3015.3365
 Red. masses --      1.0582                 5.6381                 1.0837
 Frc consts  --      1.4282                10.8296                 5.8055
 IR Inten    --      5.5423                 0.0844                34.8285

                     37                     38                     39
                      A                      A                      A
 Frequencies --   3062.4579              3070.3150              3137.3217
 Red. masses --      1.0349                 1.0353                 1.1026
 Frc consts  --      5.7185                 5.7499                 6.3942
 IR Inten    --     10.8365                13.6019                 6.7021

                     40                     41                     42
                      A                      A                      A
 Frequencies --   3142.7211              3146.1890              3154.5835
 Red. masses --      1.1024                 1.1019                 1.1028
 Frc consts  --      6.4148                 6.4260                 6.4662
 IR Inten    --     14.0931                33.1667                18.6554

                     43                     44                     45
                      A                      A                      A
 Frequencies --   3157.5900              3193.8757              3911.6522
 Red. masses --      1.0905                 1.0936                 1.0667
 Frc consts  --      6.4057                 6.5728                 9.6166
 IR Inten    --     18.2489                10.7451               107.6079

 - Thermochemistry -
 -------------------
 Temperature   298.150 Kelvin.  Pressure   1.00000 Atm.
 Atom     1 has atomic number  8 and mass  15.99491

 Molecular mass:   102.06808 amu.
 Principal axes and moments of inertia in atomic units:
                           1         2         3
     Eigenvalues --   253.671961532.916011673.64308
           X            0.99998   0.00184   0.00612
           Y           -0.00189   0.99996   0.00823
           Z           -0.00611  -0.00824   0.99995
 This molecule is an asymmetric top.
 Rotational symmetry number  1.
 Rotational temperatures (Kelvin)      0.34144     0.05650     0.05175
 Rotational constants (GHZ):           7.11447     1.17733     1.07833
 Zero-point vibrational energy     384625.2 (Joules/Mol)
                                   91.92763 (Kcal/Mol)
 Warning -- explicit consideration of  12 degrees of freedom as
           vibrations may cause significant error
 Vibrational temperatures:     89.60   115.42   224.79   267.39   304.20
          (Kelvin)            369.92   465.26   486.69   536.22   674.21
                              691.35   870.68  1216.68  1255.03  1346.80
                             1351.62  1369.04  1402.80  1648.14  1679.59
                             1705.12  1728.64  1751.66  1804.04  1917.19
                             1954.98  1976.90  2010.48  2026.50  2044.96
                             2133.57  2143.20  2152.08  2177.57  2597.81
                             4338.40  4406.19  4417.50  4513.91  4521.67
                             4526.66  4538.74  4543.07  4595.27  5628.00

 Zero-point correction=                           0.146496 (Hartree/Particle)
 Thermal correction to Energy=                    0.155372
 Thermal correction to Enthalpy=                  0.156316
 Thermal correction to Gibbs Free Energy=         0.112949
 Sum of electronic and zero-point Energies=           -346.794290
 Sum of electronic and thermal Energies=              -346.785414
 Sum of electronic and thermal Enthalpies=            -346.784470
 Sum of electronic and thermal Free Energies=         -346.827837

                     E (Thermal)             CV                S
                      KCal/Mol        Cal/Mol-Kelvin    Cal/Mol-Kelvin
 Total                   97.497             30.736             91.275
 Electronic               0.000              0.000              0.000
 Translational            0.889              2.981             39.779
 Rotational               0.889              2.981             27.967
 Vibrational             95.720             24.775             23.529
 Vibration     1          0.597              1.972              4.384
 Vibration     2          0.600              1.963              3.885
 Vibration     3          0.620              1.896              2.595
 Vibration     4          0.632              1.859              2.269
 Vibration     5          0.643              1.823              2.031
 Vibration     6          0.667              1.751              1.681
 Vibration     7          0.708              1.629              1.293
 Vibration     8          0.719              1.599              1.220
 Vibration     9          0.744              1.528              1.069
 Vibration    10          0.826              1.320              0.741
 Vibration    11          0.837              1.293              0.709
 Vibration    12          0.964              1.021              0.441

                           ! Non-Optimized Parameters !
 Normal termination of Gaussian 16 at Sat Sep 28 18:53:12 2019.
