 Gaussian 16, Revision A.03,
 Gaussian 16:  EM64L-G16RevA.03 25-Dec-2016

 ----------------------------------------------------------------------
 #p m062x/cc-pVTZ opt=(calcfc,maxcycles=900,Tight) freq IOP(7/33=1,2/16
 =3) scf=(maxcycle=900)
 ----------------------------------------------------------------------

 ------------------------------
 Gaussian input prepared by ASE
 ------------------------------
 Symbolic Z-matrix:
 Charge =  0 Multiplicity = 1

 SCF Done:  E(RM062X) =  -346.927760377     A.U. after   12 cycles
 SCF Done:  E(RM062X) =  -346.939295730     A.U. after   12 cycles
 SCF Done:  E(RM062X) =  -346.939203126     A.U. after   12 cycles
 SCF Done:  E(RM062X) =  -346.939236274     A.U. after   12 cycles
 SCF Done:  E(RM062X) =  -346.939557841     A.U. after   10 cycles
 SCF Done:  E(RM062X) =  -346.939557068     A.U. after   12 cycles
 SCF Done:  E(RM062X) =  -346.940528666     A.U. after   12 cycles
 SCF Done:  E(RM062X) =  -346.940665445     A.U. after   12 cycles
 SCF Done:  E(RM062X) =  -346.940678312     A.U. after   10 cycles
 SCF Done:  E(RM062X) =  -346.940682778     A.U. after   10 cycles
 SCF Done:  E(RM062X) =  -346.940683931     A.U. after    6 cycles
 SCF Done:  E(RM062X) =  -346.940684012     A.U. after    8 cycles
 SCF Done:  E(RM062X) =  -346.940684006     A.U. after    6 cycles
 SCF Done:  E(RM062X) =  -346.940684007     A.U. after    3 cycles
 SCF Done:  E(RM062X) =  -346.940684006     A.U. after    3 cycles
 SCF Done:  E(RM062X) =  -346.940684007     A.U. after    3 cycles
 SCF Done:  E(RM062X) =  -346.940684007     A.U. after    4 cycles
 SCF Done:  E(RM062X) =  -346.940684006     A.U. after    4 cycles
 SCF Done:  E(RM062X) =  -346.940684007     A.U. after    3 cycles
 Optimization completed.
    -- Stationary point found.
 Normal termination of Gaussian 16 at Sat Sep 28 10:20:00 2019.

 ----------------------------------------------------------------------
 #P Geom=AllCheck Guess=TCheck SCRF=Check Test GenChk RM062X/CC-pVTZ Fr
 eq
 ----------------------------------------------------------------------

 Structure from the checkpoint file:  "/scratch/harms.n/gauss_scrdir/Gau-32104.chk"
 ------------------------------
 Gaussian input prepared by ASE
 ------------------------------
 Charge =  0 Multiplicity = 1

                         Standard orientation:
 ---------------------------------------------------------------------
 Center     Atomic      Atomic             Coordinates (Angstroms)
 Number     Number       Type             X           Y           Z
 ---------------------------------------------------------------------
      1          8           0        0.288460   -0.673699    0.167661
      2          8           0       -3.192527    0.187063   -0.167534
      3          6           0        1.420900    0.030453   -0.343918
      4          6           0        2.642613   -0.738178    0.110582
      5          6           0        1.423233    1.468493    0.143606
      6          6           0       -0.905605   -0.290442   -0.367521
      7          6           0       -1.989729   -0.172859    0.382113
      8          1           0        1.362218    0.016056   -1.439525
      9          1           0        2.686146   -0.748198    1.199913
     10          1           0        2.599708   -1.766547   -0.243404
     11          1           0        3.549852   -0.270175   -0.269651
     12          1           0        1.476867    1.486947    1.232928
     13          1           0        0.515680    1.986413   -0.164985
     14          1           0        2.282287    2.005615   -0.258029
     15          1           0       -0.935790   -0.119349   -1.440218
     16          1           0       -1.948209   -0.336682    1.452142
     17          1           0       -3.904695   -0.145794    0.380644
 ---------------------------------------------------------------------

 SCF Done:  E(RM062X) =  -346.940684007     A.U. after    1 cycles

 The electronic state is 1-A.
 Alpha  occ. eigenvalues --  -19.64202 -19.63591 -10.59268 -10.57916 -10.57236
 Alpha  occ. eigenvalues --  -10.52476 -10.52402  -1.17820  -1.16852  -0.89575
 Alpha  occ. eigenvalues --   -0.82978  -0.78494  -0.68862  -0.66033  -0.61661
 Alpha  occ. eigenvalues --   -0.57052  -0.54355  -0.52841  -0.50978  -0.47276
 Alpha  occ. eigenvalues --   -0.45633  -0.45215  -0.43477  -0.43226  -0.41030
 Alpha  occ. eigenvalues --   -0.39411  -0.36605  -0.26515
 Alpha virt. eigenvalues --    0.06206   0.07430   0.07730   0.09786   0.11419
 Alpha virt. eigenvalues --    0.12506   0.13491   0.14543   0.15517   0.16781
 Alpha virt. eigenvalues --    0.18312   0.18700   0.20735   0.23839   0.25917

 Mulliken charges:
               1
     1  O   -0.263210
     2  O   -0.331367
     3  C    0.012071
     4  C   -0.341127
     5  C   -0.357215
     6  C   -0.050417
     7  C   -0.025549
     8  H    0.126383
     9  H    0.121353
    10  H    0.124925
    11  H    0.106568
    12  H    0.124283
    13  H    0.133806
    14  H    0.121005
    15  H    0.133000
    16  H    0.113331
    17  H    0.252160
 Sum of Mulliken charges =  -0.00000

 Dipole moment (field-independent basis, Debye):
    X=              0.0721    Y=              0.2054    Z=              0.5495  Tot=              0.5911
 Quadrupole moment (field-independent basis, Debye-Ang):
   XX=            -36.0972   YY=            -46.2075   ZZ=            -41.9996
   XY=              2.9821   XZ=             -5.6864   YZ=             -0.0546

  Exact polarizability:  91.071  -1.040  57.219  -5.530  -0.522  60.664
 Approx polarizability:  92.692  -1.578  67.311  -7.472  -1.338  76.748

                      1                      2                      3
                      A                      A                      A
 Frequencies --     64.5317                79.8200               133.6929
 Red. masses --      2.8172                 2.5800                 2.0741
 Frc consts  --      0.0069                 0.0097                 0.0218
 IR Inten    --      9.3564                 2.0684                51.3290

                      4                      5                      6
                      A                      A                      A
 Frequencies --    198.1207               210.8087               255.3515
 Red. masses --      1.3481                 1.0485                 1.1170
 Frc consts  --      0.0312                 0.0275                 0.0429
 IR Inten    --     69.6715                 7.1931                 0.9647

                      7                      8                      9
                      A                      A                      A
 Frequencies --    329.3773               335.1057               369.4597
 Red. masses --      3.2465                 2.7717                 3.4642
 Frc consts  --      0.2075                 0.1834                 0.2786
 IR Inten    --      2.2154                 4.0089                 7.8688

                     10                     11                     12
                      A                      A                      A
 Frequencies --    470.2990               480.7493               595.8263
 Red. masses --      3.2074                 2.6763                 4.1180
 Frc consts  --      0.4180                 0.3644                 0.8614
 IR Inten    --      1.0218                 2.7463                 3.0785

                     13                     14                     15
                      A                      A                      A
 Frequencies --    850.8559               873.7668               935.2928
 Red. masses --      2.3203                 2.0984                 1.1194
 Frc consts  --      0.9897                 0.9439                 0.5770
 IR Inten    --      1.4467                 2.8479                47.6840

                     16                     17                     18
                      A                      A                      A
 Frequencies --    937.1308               951.4227               973.5779
 Red. masses --      1.1635                 1.4334                 2.2097
 Frc consts  --      0.6020                 0.7645                 1.2340
 IR Inten    --     19.2082                 1.3394                14.4201

                     19                     20                     21
                      A                      A                      A
 Frequencies --   1144.5626              1167.0729              1184.5497
 Red. masses --      2.0505                 2.0466                 2.0369
 Frc consts  --      1.5827                 1.6424                 1.6839
 IR Inten    --     17.4035                13.1659                30.0029

                     22                     23                     24
                      A                      A                      A
 Frequencies --   1201.3200              1217.9898              1251.4508
 Red. masses --      2.2866                 2.9514                 1.5934
 Frc consts  --      1.9443                 2.5797                 1.4703
 IR Inten    --    124.6861               491.6823                 2.6208

                     25                     26                     27
                      A                      A                      A
 Frequencies --   1333.2608              1357.1852              1374.2146
 Red. masses --      1.3086                 1.4074                 1.2989
 Frc consts  --      1.3705                 1.5274                 1.4452
 IR Inten    --     15.1299                41.0683                 1.2027

                     28                     29                     30
                      A                      A                      A
 Frequencies --   1397.7338              1408.9751              1421.3468
 Red. masses --      1.2686                 1.4600                 1.3381
 Frc consts  --      1.4602                 1.7077                 1.5927
 IR Inten    --      5.0514                24.8208                22.9490

                     31                     32                     33
                      A                      A                      A
 Frequencies --   1482.8603              1489.5448              1495.7719
 Red. masses --      1.0575                 1.0498                 1.0543
 Frc consts  --      1.3700                 1.3724                 1.3898
 IR Inten    --      0.8112                 0.1577                 6.3650

                     34                     35                     36
                      A                      A                      A
 Frequencies --   1513.4548              1803.9276              3015.2857
 Red. masses --      1.0580                 5.5846                 1.0837
 Frc consts  --      1.4279                10.7073                 5.8054
 IR Inten    --      5.5982                 0.1936                35.1289

                     37                     38                     39
                      A                      A                      A
 Frequencies --   3062.6342              3070.3002              3137.4425
 Red. masses --      1.0349                 1.0353                 1.1026
 Frc consts  --      5.7193                 5.7499                 6.3946
 IR Inten    --     10.5727                13.8396                 6.2966

                     40                     41                     42
                      A                      A                      A
 Frequencies --   3143.0682              3146.1805              3154.5908
 Red. masses --      1.1024                 1.1019                 1.1029
 Frc consts  --      6.4164                 6.4260                 6.4666
 IR Inten    --     13.4918                33.6089                18.3691

                     43                     44                     45
                      A                      A                      A
 Frequencies --   3158.8782              3196.6949              3912.2530
 Red. masses --      1.0904                 1.0935                 1.0668
 Frc consts  --      6.4107                 6.5836                 9.6202
 IR Inten    --     18.3058                10.5462               112.1145

 - Thermochemistry -
 -------------------
 Temperature   298.150 Kelvin.  Pressure   1.00000 Atm.
 Atom     1 has atomic number  8 and mass  15.99491

 Molecular mass:   102.06808 amu.
 Principal axes and moments of inertia in atomic units:
                           1         2         3
     Eigenvalues --   255.300561520.084511663.02651
           X            0.99997   0.00493  -0.00529
           Y           -0.00490   0.99998   0.00487
           Z            0.00532  -0.00485   0.99997
 This molecule is an asymmetric top.
 Rotational symmetry number  1.
 Rotational temperatures (Kelvin)      0.33926     0.05698     0.05208
 Rotational constants (GHZ):           7.06908     1.18726     1.08521
 Zero-point vibrational energy     384526.1 (Joules/Mol)
                                   91.90394 (Kcal/Mol)
 Warning -- explicit consideration of  12 degrees of freedom as
           vibrations may cause significant error
 Vibrational temperatures:     92.85   114.84   192.35   285.05   303.31
          (Kelvin)            367.39   473.90   482.14   531.57   676.66
                              691.69   857.26  1224.19  1257.16  1345.68
                             1348.32  1368.89  1400.76  1646.77  1679.16
                             1704.30  1728.43  1752.42  1800.56  1918.26
                             1952.69  1977.19  2011.03  2027.20  2045.00
                             2133.51  2143.12  2152.08  2177.52  2595.45
                             4338.32  4406.45  4417.48  4514.08  4522.17
                             4526.65  4538.75  4544.92  4599.33  5628.86

 Zero-point correction=                           0.146458 (Hartree/Particle)
 Thermal correction to Energy=                    0.155357
 Thermal correction to Enthalpy=                  0.156301
 Thermal correction to Gibbs Free Energy=         0.112869
 Sum of electronic and zero-point Energies=           -346.794226
 Sum of electronic and thermal Energies=              -346.785327
 Sum of electronic and thermal Enthalpies=            -346.784383
 Sum of electronic and thermal Free Energies=         -346.827815

                     E (Thermal)             CV                S
                      KCal/Mol        Cal/Mol-Kelvin    Cal/Mol-Kelvin
 Total                   97.488             30.762             91.410
 Electronic               0.000              0.000              0.000
 Translational            0.889              2.981             39.779
 Rotational               0.889              2.981             27.958
 Vibrational             95.710             24.800             23.673
 Vibration     1          0.597              1.971              4.314
 Vibration     2          0.600              1.963              3.895
 Vibration     3          0.613              1.920              2.892
 Vibration     4          0.637              1.843              2.150
 Vibration     5          0.643              1.824              2.037
 Vibration     6          0.666              1.754              1.693
 Vibration     7          0.712              1.617              1.263
 Vibration     8          0.716              1.605              1.235
 Vibration     9          0.742              1.535              1.082
 Vibration    10          0.827              1.316              0.737
 Vibration    11          0.837              1.293              0.708
 Vibration    12          0.954              1.041              0.457

 Optimization completed.
    -- Stationary point found.
 Normal termination of Gaussian 16 at Sat Sep 28 11:37:27 2019.
