 Gaussian 16, Revision A.03,
 Gaussian 16:  EM64L-G16RevA.03 25-Dec-2016

 ----------------------------------------------------------------------
 #p m062x/cc-pVTZ opt=(calcfc,maxcycles=900,Tight) freq IOP(7/33=1,2/16
 =3) scf=(maxcycle=900)
 ----------------------------------------------------------------------

 ------------------------------
 Gaussian input prepared by ASE
 ------------------------------
 Symbolic Z-matrix:
 Charge =  0 Multiplicity = 1

 SCF Done:  E(RM062X) =  -268.309802712     A.U. after   13 cycles
 SCF Done:  E(RM062X) =  -268.316519666     A.U. after   14 cycles
 SCF Done:  E(RM062X) =  -268.316601235     A.U. after   14 cycles
 SCF Done:  E(RM062X) =  -268.317126934     A.U. after   12 cycles
 SCF Done:  E(RM062X) =  -268.317145910     A.U. after   10 cycles
 SCF Done:  E(RM062X) =  -268.317146476     A.U. after    8 cycles
 SCF Done:  E(RM062X) =  -268.317146491     A.U. after    6 cycles
 SCF Done:  E(RM062X) =  -268.317146488     A.U. after    4 cycles
 SCF Done:  E(RM062X) =  -268.317146491     A.U. after    5 cycles
 SCF Done:  E(RM062X) =  -268.317146489     A.U. after    5 cycles
 SCF Done:  E(RM062X) =  -268.317146491     A.U. after    2 cycles
 Optimization completed.
    -- Stationary point found.
 Normal termination of Gaussian 16 at Thu Sep  5 17:14:14 2019.

 ----------------------------------------------------------------------
 #P Geom=AllCheck Guess=TCheck SCRF=Check Test GenChk RM062X/CC-pVTZ Fr
 eq
 ----------------------------------------------------------------------

 Structure from the checkpoint file:  "/scratch/harms.n/gauss_scrdir/Gau-42416.chk"
 ------------------------------
 Gaussian input prepared by ASE
 ------------------------------
 Charge =  0 Multiplicity = 1

                         Standard orientation:
 ---------------------------------------------------------------------
 Center     Atomic      Atomic             Coordinates (Angstroms)
 Number     Number       Type             X           Y           Z
 ---------------------------------------------------------------------
      1          8           0       -1.145944   -0.443811   -0.366229
      2          8           0        2.397080    0.149774    0.141816
      3          6           0       -2.204507    0.217535    0.295497
      4          6           0        0.042572    0.226430   -0.276155
      5          6           0        1.149907   -0.394496    0.102442
      6          1           0       -3.106481   -0.362438    0.119106
      7          1           0       -2.013085    0.283089    1.369612
      8          1           0       -2.342910    1.227890   -0.102209
      9          1           0        0.029505    1.275178   -0.570428
     10          1           0        1.136888   -1.433710    0.398006
     11          1           0        2.359173    1.065476   -0.149489
 ---------------------------------------------------------------------

 SCF Done:  E(RM062X) =  -268.317146491     A.U. after    1 cycles

 The electronic state is 1-A.
 Alpha  occ. eigenvalues --  -19.65099 -19.64208 -10.58866 -10.58491 -10.57822
 Alpha  occ. eigenvalues --   -1.18559  -1.17592  -0.85975  -0.77403  -0.69784
 Alpha  occ. eigenvalues --   -0.60827  -0.58814  -0.53963  -0.51710  -0.49410
 Alpha  occ. eigenvalues --   -0.47423  -0.44462  -0.41989  -0.36989  -0.27381
 Alpha virt. eigenvalues --    0.06386   0.07200   0.08188   0.11006   0.13117
 Alpha virt. eigenvalues --    0.14216   0.14715   0.17500   0.24219   0.27479
 Alpha virt. eigenvalues --    0.28751   0.29242   0.32969   0.35002   0.36072

 Mulliken charges:
               1
     1  O   -0.256744
     2  O   -0.337390
     3  C   -0.123724
     4  C   -0.079235
     5  C    0.007652
     6  H    0.111398
     7  H    0.084185
     8  H    0.078357
     9  H    0.100341
    10  H    0.164118
    11  H    0.251042
 Sum of Mulliken charges =  -0.00000

 Dipole moment (field-independent basis, Debye):
    X=             -0.9551    Y=              1.9160    Z=              0.3052  Tot=              2.1625
 Quadrupole moment (field-independent basis, Debye-Ang):
   XX=            -30.0291   YY=            -27.3497   ZZ=            -32.1262
   XY=              1.3578   XZ=             -2.1853   YZ=             -1.8518

  Exact polarizability:  61.401  -3.073  41.002   1.338  -3.079  33.112
 Approx polarizability:  64.273  -4.232  49.687   3.545  -3.339  40.700

                      1                      2                      3
                      A                      A                      A
 Frequencies --     87.9774               189.1823               209.3882
 Red. masses --      2.6010                 1.0974                 2.5183
 Frc consts  --      0.0119                 0.0231                 0.0651
 IR Inten    --      4.1587                 3.1322                10.1802

                      4                      5                      6
                      A                      A                      A
 Frequencies --    326.4912               394.9722               468.6540
 Red. masses --      1.7611                 2.0884                 3.6782
 Frc consts  --      0.1106                 0.1920                 0.4760
 IR Inten    --     33.7331                57.9137                 5.1020

                      7                      8                      9
                      A                      A                      A
 Frequencies --    558.0539               855.3202               954.6293
 Red. masses --      4.5119                 1.8119                 1.1508
 Frc consts  --      0.8279                 0.7810                 0.6179
 IR Inten    --     10.9006                19.1540                55.9155

                     10                     11                     12
                      A                      A                      A
 Frequencies --   1047.7690              1134.3442              1186.4571
 Red. masses --      3.5523                 2.3495                 1.3782
 Frc consts  --      2.2977                 1.7812                 1.1431
 IR Inten    --     25.5132               123.3897                50.6287

                     13                     14                     15
                      A                      A                      A
 Frequencies --   1192.1825              1266.0757              1287.9067
 Red. masses --      1.6037                 3.3191                 1.7978
 Frc consts  --      1.3429                 3.1347                 1.7569
 IR Inten    --     93.0572               241.2776                 3.9911

                     16                     17                     18
                      A                      A                      A
 Frequencies --   1325.4812              1384.7547              1484.3770
 Red. masses --      1.1977                 1.3211                 1.1756
 Frc consts  --      1.2397                 1.4926                 1.5262
 IR Inten    --      0.5632                90.0065                 2.8040

                     19                     20                     21
                      A                      A                      A
 Frequencies --   1498.7680              1514.6819              1786.0122
 Red. masses --      1.0449                 1.0478                 5.9429
 Frc consts  --      1.3829                 1.4163                11.1692
 IR Inten    --      7.2113                 8.8370                11.4931

                     22                     23                     24
                      A                      A                      A
 Frequencies --   3027.7684              3086.5853              3125.9237
 Red. masses --      1.0358                 1.1036                 1.0904
 Frc consts  --      5.5949                 6.1949                 6.2775
 IR Inten    --     52.9964                42.2782                31.2556

                     25                     26                     27
                      A                      A                      A
 Frequencies --   3160.4434              3237.7445              3869.2341
 Red. masses --      1.0996                 1.0935                 1.0656
 Frc consts  --      6.4713                 6.7537                 9.3991
 IR Inten    --     20.2675                 5.6072                47.3945

 - Thermochemistry -
 -------------------
 Temperature   298.150 Kelvin.  Pressure   1.00000 Atm.
 Atom     1 has atomic number  8 and mass  15.99491

 Molecular mass:    74.03678 amu.
 Principal axes and moments of inertia in atomic units:
                           1         2         3
     Eigenvalues --    71.44629 785.37611 808.90221
           X            0.99988  -0.00991  -0.01219
           Y            0.00753   0.98330  -0.18183
           Z            0.01378   0.18171   0.98325
 This molecule is an asymmetric top.
 Rotational symmetry number  1.
 Rotational temperatures (Kelvin)      1.21229     0.11028     0.10708
 Rotational constants (GHZ):          25.26011     2.29793     2.23110
 Zero-point vibrational energy     237226.5 (Joules/Mol)
                                   56.69850 (Kcal/Mol)
 Warning -- explicit consideration of   7 degrees of freedom as
           vibrations may cause significant error
 Vibrational temperatures:    126.58   272.19   301.26   469.75   568.28
          (Kelvin)            674.29   802.92  1230.61  1373.50  1507.51
                             1632.07  1707.05  1715.28  1821.60  1853.01
                             1907.07  1992.35  2135.69  2156.39  2179.29
                             2569.67  4356.28  4440.91  4497.51  4547.17
                             4658.39  5566.96

 Zero-point correction=                           0.090355 (Hartree/Particle)
 Thermal correction to Energy=                    0.096459
 Thermal correction to Enthalpy=                  0.097403
 Thermal correction to Gibbs Free Energy=         0.061150
 Sum of electronic and zero-point Energies=           -268.226792
 Sum of electronic and thermal Energies=              -268.220688
 Sum of electronic and thermal Enthalpies=            -268.219744
 Sum of electronic and thermal Free Energies=         -268.255996

                     E (Thermal)             CV                S
                      KCal/Mol        Cal/Mol-Kelvin    Cal/Mol-Kelvin
 Total                   60.529             19.962             76.299
 Electronic               0.000              0.000              0.000
 Translational            0.889              2.981             38.822
 Rotational               0.889              2.981             25.321
 Vibrational             58.751             14.001             12.157
 Vibration     1          0.601              1.958              3.705
 Vibration     2          0.633              1.855              2.236
 Vibration     3          0.642              1.826              2.049
 Vibration     4          0.710              1.623              1.277
 Vibration     5          0.762              1.481              0.981
 Vibration     6          0.826              1.320              0.741
 Vibration     7          0.914              1.122              0.528

                           ! Non-Optimized Parameters !
 Normal termination of Gaussian 16 at Thu Sep  5 17:39:54 2019.
