 Gaussian 16, Revision A.03,
 Gaussian 16:  EM64L-G16RevA.03 25-Dec-2016

 ----------------------------------------------------------------------
 #p m062x/cc-pVTZ opt=(calcfc,maxcycles=900,Tight) freq IOP(7/33=1,2/16
 =3) scf=(maxcycle=900)
 ----------------------------------------------------------------------

 ------------------------------
 Gaussian input prepared by ASE
 ------------------------------
 Symbolic Z-matrix:
 Charge =  0 Multiplicity = 1

 SCF Done:  E(RM062X) =  -268.307538127     A.U. after   13 cycles
 SCF Done:  E(RM062X) =  -268.315460539     A.U. after   13 cycles
 SCF Done:  E(RM062X) =  -268.297171268     A.U. after   13 cycles
 SCF Done:  E(RM062X) =  -268.316754069     A.U. after   13 cycles
 SCF Done:  E(RM062X) =  -268.284723451     A.U. after   13 cycles
 SCF Done:  E(RM062X) =  -268.317507687     A.U. after   11 cycles
 SCF Done:  E(RM062X) =  -268.317996888     A.U. after   11 cycles
 SCF Done:  E(RM062X) =  -268.318383888     A.U. after   11 cycles
 SCF Done:  E(RM062X) =  -268.319150030     A.U. after   13 cycles
 SCF Done:  E(RM062X) =  -268.320108460     A.U. after   11 cycles
 SCF Done:  E(RM062X) =  -268.324113904     A.U. after    9 cycles
 SCF Done:  E(RM062X) =  -268.324154678     A.U. after    9 cycles
 SCF Done:  E(RM062X) =  -268.324185272     A.U. after   10 cycles
 SCF Done:  E(RM062X) =  -268.324186094     A.U. after    7 cycles
 SCF Done:  E(RM062X) =  -268.324186339     A.U. after    7 cycles
 SCF Done:  E(RM062X) =  -268.324186358     A.U. after    5 cycles
 SCF Done:  E(RM062X) =  -268.324186359     A.U. after    4 cycles
 SCF Done:  E(RM062X) =  -268.324186359     A.U. after    3 cycles
 SCF Done:  E(RM062X) =  -268.324186360     A.U. after    3 cycles
 Optimization completed.
    -- Stationary point found.
 Normal termination of Gaussian 16 at Thu Sep  5 19:36:57 2019.

 ----------------------------------------------------------------------
 #P Geom=AllCheck Guess=TCheck SCRF=Check Test GenChk RM062X/CC-pVTZ Fr
 eq
 ----------------------------------------------------------------------

 Structure from the checkpoint file:  "/scratch/harms.n/gauss_scrdir/Gau-29516.chk"
 ------------------------------
 Gaussian input prepared by ASE
 ------------------------------
 Charge =  0 Multiplicity = 1

                         Standard orientation:
 ---------------------------------------------------------------------
 Center     Atomic      Atomic             Coordinates (Angstroms)
 Number     Number       Type             X           Y           Z
 ---------------------------------------------------------------------
      1          8           0       -0.799601   -0.289817   -0.394622
      2          8           0        1.881916   -0.695902    0.085840
      3          6           0       -2.064256   -0.195943    0.229821
      4          6           0        0.031433    0.766364   -0.112997
      5          6           0        1.321056    0.539149    0.093072
      6          1           0       -2.646541   -1.055949   -0.089731
      7          1           0       -1.965076   -0.202185    1.317813
      8          1           0       -2.578211    0.719602   -0.075966
      9          1           0       -0.400137    1.758626   -0.112228
     10          1           0        2.025344    1.338181    0.263396
     11          1           0        1.176708   -1.329947   -0.092405
 ---------------------------------------------------------------------

 SCF Done:  E(RM062X) =  -268.324186360     A.U. after    1 cycles

 The electronic state is 1-A.
 Alpha  occ. eigenvalues --  -19.65087 -19.64216 -10.59097 -10.58531 -10.57563
 Alpha  occ. eigenvalues --   -1.19407  -1.16694  -0.86004  -0.78171  -0.68481
 Alpha  occ. eigenvalues --   -0.61262  -0.59037  -0.54689  -0.51218  -0.49965
 Alpha  occ. eigenvalues --   -0.46956  -0.44054  -0.42217  -0.38448  -0.27047
 Alpha virt. eigenvalues --    0.06778   0.07854   0.09253   0.10363   0.13456
 Alpha virt. eigenvalues --    0.13939   0.15798   0.16070   0.21611   0.28538
 Alpha virt. eigenvalues --    0.29851   0.31059   0.32803   0.35064   0.36154

 Mulliken charges:
               1
     1  O   -0.282990
     2  O   -0.345155
     3  C   -0.125774
     4  C   -0.056040
     5  C   -0.007461
     6  H    0.111796
     7  H    0.090425
     8  H    0.087426
     9  H    0.112300
    10  H    0.150443
    11  H    0.265031
 Sum of Mulliken charges =  -0.00000

 Dipole moment (field-independent basis, Debye):
    X=             -2.0412    Y=              0.5953    Z=              0.5547  Tot=              2.1974
 Quadrupole moment (field-independent basis, Debye-Ang):
   XX=            -29.8757   YY=            -27.0911   ZZ=            -32.5254
   XY=              1.8063   XZ=             -0.8085   YZ=              0.2060

  Exact polarizability:  59.971  -0.414  41.844   1.151  -0.132  31.795
 Approx polarizability:  65.049  -2.294  49.137   2.430   0.348  39.306

                      1                      2                      3
                      A                      A                      A
 Frequencies --     69.3965               187.0214               231.0562
 Red. masses --      3.3051                 1.3312                 2.5757
 Frc consts  --      0.0094                 0.0274                 0.0810
 IR Inten    --      3.2970                 0.3339                 6.3056

                      4                      5                      6
                      A                      A                      A
 Frequencies --    358.4111               479.4347               586.1032
 Red. masses --      2.9423                 1.1816                 3.1568
 Frc consts  --      0.2227                 0.1600                 0.6389
 IR Inten    --      6.4084                90.2446                16.8919

                      7                      8                      9
                      A                      A                      A
 Frequencies --    745.3469               774.6735               919.0102
 Red. masses --      3.8776                 1.3399                 1.2745
 Frc consts  --      1.2692                 0.4737                 0.6342
 IR Inten    --     21.3265                37.6941                 5.9191

                     10                     11                     12
                      A                      A                      A
 Frequencies --   1009.3176              1116.8078              1178.1524
 Red. masses --      3.5633                 2.6546                 3.5676
 Frc consts  --      2.1387                 1.9508                 2.9176
 IR Inten    --     21.6905               105.0895               203.4906

                     13                     14                     15
                      A                      A                      A
 Frequencies --   1189.1887              1212.8013              1276.9403
 Red. masses --      1.2955                 1.1908                 1.6849
 Frc consts  --      1.0794                 1.0320                 1.6187
 IR Inten    --      4.1739                73.9282                66.6656

                     16                     17                     18
                      A                      A                      A
 Frequencies --   1371.2509              1418.0326              1492.3082
 Red. masses --      1.4864                 1.3584                 1.1965
 Frc consts  --      1.6467                 1.6094                 1.5700
 IR Inten    --      0.5131                95.4559                11.4238

                     19                     20                     21
                      A                      A                      A
 Frequencies --   1499.5348              1517.3807              1781.4366
 Red. masses --      1.0447                 1.0495                 6.2691
 Frc consts  --      1.3840                 1.4237                11.7219
 IR Inten    --      7.4379                11.0577                61.4697

                     22                     23                     24
                      A                      A                      A
 Frequencies --   3035.8120              3096.2789              3162.2715
 Red. masses --      1.0346                 1.1049                 1.1004
 Frc consts  --      5.6180                 6.2411                 6.4834
 IR Inten    --     53.7761                36.6871                18.0945

                     25                     26                     27
                      A                      A                      A
 Frequencies --   3205.6029              3258.4751              3828.7163
 Red. masses --      1.0901                 1.0982                 1.0647
 Frc consts  --      6.5999                 6.8703                 9.1953
 IR Inten    --      7.0101                 7.2802                58.8446

 - Thermochemistry -
 -------------------
 Temperature   298.150 Kelvin.  Pressure   1.00000 Atm.
 Atom     1 has atomic number  8 and mass  15.99491

 Molecular mass:    74.03678 amu.
 Principal axes and moments of inertia in atomic units:
                           1         2         3
     Eigenvalues --   120.53165 597.81243 680.37566
           X            0.99986   0.01266  -0.01109
           Y           -0.01263   0.99992   0.00227
           Z            0.01111  -0.00213   0.99994
 This molecule is an asymmetric top.
 Rotational symmetry number  1.
 Rotational temperatures (Kelvin)      0.71860     0.14488     0.12730
 Rotational constants (GHZ):          14.97317     3.01891     2.65257
 Zero-point vibrational energy     239257.7 (Joules/Mol)
                                   57.18396 (Kcal/Mol)
 Warning -- explicit consideration of   6 degrees of freedom as
           vibrations may cause significant error
 Vibrational temperatures:     99.85   269.08   332.44   515.67   689.80
          (Kelvin)            843.27  1072.39  1114.58  1322.25  1452.18
                             1606.84  1695.10  1710.98  1744.95  1837.23
                             1972.92  2040.23  2147.10  2157.50  2183.17
                             2563.09  4367.86  4454.85  4549.80  4612.15
                             4688.22  5508.67

 Zero-point correction=                           0.091128 (Hartree/Particle)
 Thermal correction to Energy=                    0.096997
 Thermal correction to Enthalpy=                  0.097941
 Thermal correction to Gibbs Free Energy=         0.061912
 Sum of electronic and zero-point Energies=           -268.233058
 Sum of electronic and thermal Energies=              -268.227190
 Sum of electronic and thermal Enthalpies=            -268.226245
 Sum of electronic and thermal Free Energies=         -268.262274

                     E (Thermal)             CV                S
                      KCal/Mol        Cal/Mol-Kelvin    Cal/Mol-Kelvin
 Total                   60.866             19.297             75.829
 Electronic               0.000              0.000              0.000
 Translational            0.889              2.981             38.822
 Rotational               0.889              2.981             25.397
 Vibrational             59.089             13.335             11.610
 Vibration     1          0.598              1.969              4.170
 Vibration     2          0.632              1.858              2.257
 Vibration     3          0.653              1.794              1.871
 Vibration     4          0.733              1.558              1.129
 Vibration     5          0.836              1.296              0.712
 Vibration     6          0.943              1.061              0.474

                           ! Non-Optimized Parameters !
 Normal termination of Gaussian 16 at Thu Sep  5 20:02:45 2019.
