 Gaussian 16, Revision A.03,
 Gaussian 16:  EM64L-G16RevA.03 25-Dec-2016

 ----------------------------------------------------------------------
 #p m062x/cc-pVTZ opt=(calcfc,maxcycles=900,Tight) freq IOP(7/33=1,2/16
 =3) scf=(maxcycle=900)
 ----------------------------------------------------------------------

 ------------------------------
 Gaussian input prepared by ASE
 ------------------------------
 Symbolic Z-matrix:
 Charge =  0 Multiplicity = 1

 SCF Done:  E(RM062X) =  -268.310120709     A.U. after   13 cycles
 SCF Done:  E(RM062X) =  -268.316477762     A.U. after   14 cycles
 SCF Done:  E(RM062X) =  -268.316590442     A.U. after   14 cycles
 SCF Done:  E(RM062X) =  -268.317124045     A.U. after   12 cycles
 SCF Done:  E(RM062X) =  -268.317145593     A.U. after   10 cycles
 SCF Done:  E(RM062X) =  -268.317146455     A.U. after    8 cycles
 SCF Done:  E(RM062X) =  -268.317146491     A.U. after    6 cycles
 SCF Done:  E(RM062X) =  -268.317146489     A.U. after    4 cycles
 SCF Done:  E(RM062X) =  -268.317146484     A.U. after    5 cycles
 SCF Done:  E(RM062X) =  -268.317146489     A.U. after    5 cycles
 Optimization completed.
    -- Stationary point found.
 Normal termination of Gaussian 16 at Thu Sep  5 16:13:17 2019.

 ----------------------------------------------------------------------
 #P Geom=AllCheck Guess=TCheck SCRF=Check Test GenChk RM062X/CC-pVTZ Fr
 eq
 ----------------------------------------------------------------------

 Structure from the checkpoint file:  "/scratch/harms.n/gauss_scrdir/Gau-8537.chk"
 ------------------------------
 Gaussian input prepared by ASE
 ------------------------------
 Charge =  0 Multiplicity = 1

                         Standard orientation:
 ---------------------------------------------------------------------
 Center     Atomic      Atomic             Coordinates (Angstroms)
 Number     Number       Type             X           Y           Z
 ---------------------------------------------------------------------
      1          8           0       -1.145926   -0.443882   -0.366100
      2          8           0        2.397106    0.149816    0.141757
      3          6           0       -2.204568    0.217575    0.295385
      4          6           0        0.042568    0.226400   -0.276056
      5          6           0        1.149951   -0.394503    0.102439
      6          1           0       -2.013314    0.283250    1.369523
      7          1           0       -2.342877    1.227887   -0.102461
      8          1           0       -3.106533   -0.362390    0.118922
      9          1           0        0.029442    1.275163   -0.570271
     10          1           0        1.136991   -1.433730    0.397959
     11          1           0        2.359150    1.065519   -0.149538
 ---------------------------------------------------------------------

 SCF Done:  E(RM062X) =  -268.317146489     A.U. after    1 cycles

 The electronic state is 1-A.
 Alpha  occ. eigenvalues --  -19.65098 -19.64209 -10.58865 -10.58491 -10.57823
 Alpha  occ. eigenvalues --   -1.18559  -1.17592  -0.85975  -0.77403  -0.69784
 Alpha  occ. eigenvalues --   -0.60827  -0.58814  -0.53963  -0.51710  -0.49409
 Alpha  occ. eigenvalues --   -0.47423  -0.44462  -0.41989  -0.36990  -0.27380
 Alpha virt. eigenvalues --    0.06386   0.07201   0.08187   0.11006   0.13117
 Alpha virt. eigenvalues --    0.14216   0.14715   0.17501   0.24219   0.27479
 Alpha virt. eigenvalues --    0.28751   0.29242   0.32968   0.35002   0.36071

 Mulliken charges:
               1
     1  O   -0.256734
     2  O   -0.337394
     3  C   -0.123729
     4  C   -0.079220
     5  C    0.007648
     6  H    0.084189
     7  H    0.078355
     8  H    0.111399
     9  H    0.100333
    10  H    0.164114
    11  H    0.251040
 Sum of Mulliken charges =  -0.00000

 Dipole moment (field-independent basis, Debye):
    X=             -0.9553    Y=              1.9161    Z=              0.3050  Tot=              2.1627
 Quadrupole moment (field-independent basis, Debye-Ang):
   XX=            -30.0291   YY=            -27.3497   ZZ=            -32.1262
   XY=              1.3573   XZ=             -2.1847   YZ=             -1.8516

  Exact polarizability:  61.403  -3.073  41.002   1.337  -3.078  33.111
 Approx polarizability:  64.275  -4.233  49.687   3.544  -3.338  40.699

                      1                      2                      3
                      A                      A                      A
 Frequencies --     87.9844               189.1747               209.3904
 Red. masses --      2.6010                 1.0974                 2.5187
 Frc consts  --      0.0119                 0.0231                 0.0651
 IR Inten    --      4.1579                 3.1368                10.1725

                      4                      5                      6
                      A                      A                      A
 Frequencies --    326.4714               394.9722               468.6594
 Red. masses --      1.7608                 2.0890                 3.6778
 Frc consts  --      0.1106                 0.1920                 0.4759
 IR Inten    --     33.7406                57.9105                 5.1023

                      7                      8                      9
                      A                      A                      A
 Frequencies --    558.0414               855.3195               954.6283
 Red. masses --      4.5119                 1.8119                 1.1508
 Frc consts  --      0.8278                 0.7810                 0.6179
 IR Inten    --     10.8998                19.1491                55.9240

                     10                     11                     12
                      A                      A                      A
 Frequencies --   1047.7757              1134.3430              1186.4547
 Red. masses --      3.5522                 2.3495                 1.3782
 Frc consts  --      2.2977                 1.7812                 1.1430
 IR Inten    --     25.5038               123.3972                50.6076

                     13                     14                     15
                      A                      A                      A
 Frequencies --   1192.1806              1266.0771              1287.9134
 Red. masses --      1.6037                 3.3192                 1.7978
 Frc consts  --      1.3429                 3.1348                 1.7570
 IR Inten    --     93.0802               241.3144                 3.9838

                     16                     17                     18
                      A                      A                      A
 Frequencies --   1325.4845              1384.7572              1484.3787
 Red. masses --      1.1977                 1.3211                 1.1756
 Frc consts  --      1.2397                 1.4926                 1.5262
 IR Inten    --      0.5634                90.0143                 2.8038

                     19                     20                     21
                      A                      A                      A
 Frequencies --   1498.7675              1514.6799              1786.0224
 Red. masses --      1.0449                 1.0478                 5.9430
 Frc consts  --      1.3829                 1.4163                11.1694
 IR Inten    --      7.2111                 8.8384                11.4865

                     22                     23                     24
                      A                      A                      A
 Frequencies --   3027.7661              3086.5824              3125.9286
 Red. masses --      1.0358                 1.1036                 1.0904
 Frc consts  --      5.5949                 6.1949                 6.2775
 IR Inten    --     52.9989                42.2812                31.2513

                     25                     26                     27
                      A                      A                      A
 Frequencies --   3160.4470              3237.7490              3869.2343
 Red. masses --      1.0996                 1.0935                 1.0656
 Frc consts  --      6.4714                 6.7537                 9.3991
 IR Inten    --     20.2661                 5.6076                47.3921

 - Thermochemistry -
 -------------------
 Temperature   298.150 Kelvin.  Pressure   1.00000 Atm.
 Atom     1 has atomic number  8 and mass  15.99491

 Molecular mass:    74.03678 amu.
 Principal axes and moments of inertia in atomic units:
                           1         2         3
     Eigenvalues --    71.43848 785.38866 808.93133
           X            0.99988  -0.00991  -0.01218
           Y            0.00754   0.98333  -0.18167
           Z            0.01378   0.18156   0.98328
 This molecule is an asymmetric top.
 Rotational symmetry number  1.
 Rotational temperatures (Kelvin)      1.21243     0.11028     0.10707
 Rotational constants (GHZ):          25.26287     2.29790     2.23102
 Zero-point vibrational energy     237226.6 (Joules/Mol)
                                   56.69851 (Kcal/Mol)
 Warning -- explicit consideration of   7 degrees of freedom as
           vibrations may cause significant error
 Vibrational temperatures:    126.59   272.18   301.27   469.72   568.28
          (Kelvin)            674.30   802.90  1230.61  1373.50  1507.52
                             1632.07  1707.04  1715.28  1821.60  1853.02
                             1907.08  1992.36  2135.69  2156.39  2179.29
                             2569.69  4356.28  4440.90  4497.51  4547.18
                             4658.40  5566.97

 Zero-point correction=                           0.090355 (Hartree/Particle)
 Thermal correction to Energy=                    0.096459
 Thermal correction to Enthalpy=                  0.097403
 Thermal correction to Gibbs Free Energy=         0.061150
 Sum of electronic and zero-point Energies=           -268.226792
 Sum of electronic and thermal Energies=              -268.220688
 Sum of electronic and thermal Enthalpies=            -268.219744
 Sum of electronic and thermal Free Energies=         -268.255996

                     E (Thermal)             CV                S
                      KCal/Mol        Cal/Mol-Kelvin    Cal/Mol-Kelvin
 Total                   60.529             19.962             76.299
 Electronic               0.000              0.000              0.000
 Translational            0.889              2.981             38.822
 Rotational               0.889              2.981             25.321
 Vibrational             58.751             14.001             12.157
 Vibration     1          0.601              1.958              3.704
 Vibration     2          0.633              1.855              2.236
 Vibration     3          0.642              1.826              2.049
 Vibration     4          0.710              1.623              1.277
 Vibration     5          0.762              1.481              0.981
 Vibration     6          0.826              1.320              0.741
 Vibration     7          0.914              1.122              0.528

 Optimization completed.
    -- Stationary point found.
 Normal termination of Gaussian 16 at Thu Sep  5 16:37:48 2019.
