 Gaussian 16, Revision A.03,
 Gaussian 16:  EM64L-G16RevA.03 25-Dec-2016

 ----------------------------------------------------------------------
 #p m062x/cc-pVTZ opt=(calcfc,maxcycles=900,Tight) freq IOP(7/33=1,2/16
 =3) scf=(maxcycle=900)
 ----------------------------------------------------------------------

 ------------------------------
 Gaussian input prepared by ASE
 ------------------------------
 Symbolic Z-matrix:
 Charge =  0 Multiplicity = 1

 SCF Done:  E(RM062X) =  -268.309850985     A.U. after   13 cycles
 SCF Done:  E(RM062X) =  -268.316528012     A.U. after   14 cycles
 SCF Done:  E(RM062X) =  -268.316688655     A.U. after   14 cycles
 SCF Done:  E(RM062X) =  -268.317131163     A.U. after   12 cycles
 SCF Done:  E(RM062X) =  -268.317146163     A.U. after   10 cycles
 SCF Done:  E(RM062X) =  -268.317146478     A.U. after    8 cycles
 SCF Done:  E(RM062X) =  -268.317146490     A.U. after    6 cycles
 SCF Done:  E(RM062X) =  -268.317146488     A.U. after    4 cycles
 SCF Done:  E(RM062X) =  -268.317146494     A.U. after    5 cycles
 SCF Done:  E(RM062X) =  -268.317146489     A.U. after    5 cycles
 SCF Done:  E(RM062X) =  -268.317146493     A.U. after    3 cycles
 Optimization completed.
    -- Stationary point found.
 Normal termination of Gaussian 16 at Thu Sep  5 19:04:16 2019.

 ----------------------------------------------------------------------
 #P Geom=AllCheck Guess=TCheck SCRF=Check Test GenChk RM062X/CC-pVTZ Fr
 eq
 ----------------------------------------------------------------------

 Structure from the checkpoint file:  "/scratch/harms.n/gauss_scrdir/Gau-33693.chk"
 ------------------------------
 Gaussian input prepared by ASE
 ------------------------------
 Charge =  0 Multiplicity = 1

                         Standard orientation:
 ---------------------------------------------------------------------
 Center     Atomic      Atomic             Coordinates (Angstroms)
 Number     Number       Type             X           Y           Z
 ---------------------------------------------------------------------
      1          8           0       -1.145946   -0.443791   -0.366259
      2          8           0        2.397076    0.149767    0.141836
      3          6           0       -2.204503    0.217520    0.295513
      4          6           0        0.042573    0.226444   -0.276153
      5          6           0        1.149901   -0.394497    0.102438
      6          1           0       -3.106490   -0.362409    0.119045
      7          1           0       -2.013099    0.282961    1.369638
      8          1           0       -2.342867    1.227919   -0.102093
      9          1           0        0.029512    1.275199   -0.570402
     10          1           0        1.136873   -1.433716    0.397983
     11          1           0        2.359198    1.065435   -0.149578
 ---------------------------------------------------------------------

 SCF Done:  E(RM062X) =  -268.317146493     A.U. after    1 cycles

 The electronic state is 1-A.
 Alpha  occ. eigenvalues --  -19.65098 -19.64208 -10.58866 -10.58491 -10.57822
 Alpha  occ. eigenvalues --   -1.18559  -1.17592  -0.85975  -0.77403  -0.69784
 Alpha  occ. eigenvalues --   -0.60827  -0.58814  -0.53963  -0.51710  -0.49410
 Alpha  occ. eigenvalues --   -0.47423  -0.44462  -0.41989  -0.36988  -0.27381
 Alpha virt. eigenvalues --    0.06386   0.07200   0.08188   0.11006   0.13117
 Alpha virt. eigenvalues --    0.14216   0.14715   0.17501   0.24219   0.27479
 Alpha virt. eigenvalues --    0.28751   0.29242   0.32969   0.35002   0.36072

 Mulliken charges:
               1
     1  O   -0.256745
     2  O   -0.337389
     3  C   -0.123722
     4  C   -0.079238
     5  C    0.007653
     6  H    0.111397
     7  H    0.084186
     8  H    0.078355
     9  H    0.100342
    10  H    0.164118
    11  H    0.251042
 Sum of Mulliken charges =  -0.00000

 Dipole moment (field-independent basis, Debye):
    X=             -0.9550    Y=              1.9159    Z=              0.3051  Tot=              2.1623
 Quadrupole moment (field-independent basis, Debye-Ang):
   XX=            -30.0289   YY=            -27.3498   ZZ=            -32.1263
   XY=              1.3578   XZ=             -2.1859   YZ=             -1.8520

  Exact polarizability:  61.401  -3.073  41.002   1.338  -3.079  33.112
 Approx polarizability:  64.273  -4.232  49.687   3.545  -3.339  40.701

                      1                      2                      3
                      A                      A                      A
 Frequencies --     87.9771               189.1690               209.3840
 Red. masses --      2.6010                 1.0974                 2.5181
 Frc consts  --      0.0119                 0.0231                 0.0650
 IR Inten    --      4.1598                 3.1339                10.1836

                      4                      5                      6
                      A                      A                      A
 Frequencies --    326.4766               394.9551               468.6536
 Red. masses --      1.7608                 2.0889                 3.6782
 Frc consts  --      0.1106                 0.1920                 0.4760
 IR Inten    --     33.7478                57.8961                 5.1001

                      7                      8                      9
                      A                      A                      A
 Frequencies --    558.0578               855.3230               954.6323
 Red. masses --      4.5120                 1.8119                 1.1508
 Frc consts  --      0.8279                 0.7810                 0.6179
 IR Inten    --     10.9005                19.1561                55.9129

                     10                     11                     12
                      A                      A                      A
 Frequencies --   1047.7671              1134.3425              1186.4559
 Red. masses --      3.5523                 2.3494                 1.3783
 Frc consts  --      2.2977                 1.7812                 1.1431
 IR Inten    --     25.5137               123.3887                50.6442

                     13                     14                     15
                      A                      A                      A
 Frequencies --   1192.1830              1266.0747              1287.9051
 Red. masses --      1.6036                 3.3192                 1.7978
 Frc consts  --      1.3429                 3.1347                 1.7569
 IR Inten    --     93.0368               241.2798                 3.9901

                     16                     17                     18
                      A                      A                      A
 Frequencies --   1325.4811              1384.7528              1484.3767
 Red. masses --      1.1976                 1.3211                 1.1756
 Frc consts  --      1.2397                 1.4926                 1.5262
 IR Inten    --      0.5632                90.0037                 2.8042

                     19                     20                     21
                      A                      A                      A
 Frequencies --   1498.7652              1514.6810              1786.0117
 Red. masses --      1.0449                 1.0478                 5.9430
 Frc consts  --      1.3829                 1.4163                11.1692
 IR Inten    --      7.2114                 8.8366                11.4939

                     22                     23                     24
                      A                      A                      A
 Frequencies --   3027.7695              3086.5856              3125.9225
 Red. masses --      1.0358                 1.1036                 1.0904
 Frc consts  --      5.5949                 6.1949                 6.2775
 IR Inten    --     52.9951                42.2779                31.2560

                     25                     26                     27
                      A                      A                      A
 Frequencies --   3160.4426              3237.7440              3869.2379
 Red. masses --      1.0996                 1.0935                 1.0656
 Frc consts  --      6.4713                 6.7537                 9.3991
 IR Inten    --     20.2679                 5.6072                47.3960

 - Thermochemistry -
 -------------------
 Temperature   298.150 Kelvin.  Pressure   1.00000 Atm.
 Atom     1 has atomic number  8 and mass  15.99491

 Molecular mass:    74.03678 amu.
 Principal axes and moments of inertia in atomic units:
                           1         2         3
     Eigenvalues --    71.44691 785.37563 808.89888
           X            0.99988  -0.00991  -0.01219
           Y            0.00753   0.98330  -0.18186
           Z            0.01379   0.18174   0.98325
 This molecule is an asymmetric top.
 Rotational symmetry number  1.
 Rotational temperatures (Kelvin)      1.21228     0.11028     0.10708
 Rotational constants (GHZ):          25.25989     2.29793     2.23111
 Zero-point vibrational energy     237226.2 (Joules/Mol)
                                   56.69843 (Kcal/Mol)
 Warning -- explicit consideration of   7 degrees of freedom as
           vibrations may cause significant error
 Vibrational temperatures:    126.58   272.17   301.26   469.73   568.25
          (Kelvin)            674.29   802.92  1230.62  1373.50  1507.50
                             1632.07  1707.05  1715.29  1821.60  1853.01
                             1907.07  1992.35  2135.69  2156.39  2179.29
                             2569.67  4356.29  4440.91  4497.51  4547.17
                             4658.39  5566.97

 Zero-point correction=                           0.090355 (Hartree/Particle)
 Thermal correction to Energy=                    0.096459
 Thermal correction to Enthalpy=                  0.097403
 Thermal correction to Gibbs Free Energy=         0.061150
 Sum of electronic and zero-point Energies=           -268.226792
 Sum of electronic and thermal Energies=              -268.220688
 Sum of electronic and thermal Enthalpies=            -268.219744
 Sum of electronic and thermal Free Energies=         -268.255996

                     E (Thermal)             CV                S
                      KCal/Mol        Cal/Mol-Kelvin    Cal/Mol-Kelvin
 Total                   60.529             19.963             76.300
 Electronic               0.000              0.000              0.000
 Translational            0.889              2.981             38.822
 Rotational               0.889              2.981             25.321
 Vibrational             58.751             14.001             12.157
 Vibration     1          0.601              1.958              3.705
 Vibration     2          0.633              1.855              2.236
 Vibration     3          0.642              1.826              2.049
 Vibration     4          0.710              1.623              1.277
 Vibration     5          0.762              1.481              0.981
 Vibration     6          0.826              1.320              0.741
 Vibration     7          0.914              1.122              0.528

                           ! Non-Optimized Parameters !
 Normal termination of Gaussian 16 at Thu Sep  5 19:29:21 2019.
