 Gaussian 16, Revision A.03,
 Gaussian 16:  EM64L-G16RevA.03 25-Dec-2016

 ----------------------------------------------------------------------
 #p m062x/cc-pVTZ opt=(calcfc,maxcycles=900,Tight) freq IOP(7/33=1,2/16
 =3) scf=(maxcycle=900)
 ----------------------------------------------------------------------

 ------------------------------
 Gaussian input prepared by ASE
 ------------------------------
 Symbolic Z-matrix:
 Charge =  0 Multiplicity = 1

 SCF Done:  E(RM062X) =  -346.925439393     A.U. after   13 cycles
 SCF Done:  E(RM062X) =  -346.940231473     A.U. after   12 cycles
 SCF Done:  E(RM062X) =  -346.944083991     A.U. after   12 cycles
 SCF Done:  E(RM062X) =  -346.945630912     A.U. after   13 cycles
 SCF Done:  E(RM062X) =  -346.945238115     A.U. after   12 cycles
 SCF Done:  E(RM062X) =  -346.923367732     A.U. after   13 cycles
 SCF Done:  E(RM062X) =  -346.925518910     A.U. after   12 cycles
 SCF Done:  E(RM062X) =  -346.946429641     A.U. after   10 cycles
 SCF Done:  E(RM062X) =  -346.947045855     A.U. after   11 cycles
 SCF Done:  E(RM062X) =  -346.947291497     A.U. after   11 cycles
 SCF Done:  E(RM062X) =  -346.947918934     A.U. after    9 cycles
 SCF Done:  E(RM062X) =  -346.947917425     A.U. after   10 cycles
 SCF Done:  E(RM062X) =  -346.947919513     A.U. after    9 cycles
 SCF Done:  E(RM062X) =  -346.947919553     A.U. after    7 cycles
 SCF Done:  E(RM062X) =  -346.947919569     A.U. after    7 cycles
 SCF Done:  E(RM062X) =  -346.947919572     A.U. after    5 cycles
 SCF Done:  E(RM062X) =  -346.947919572     A.U. after    3 cycles
 SCF Done:  E(RM062X) =  -346.947919571     A.U. after    5 cycles
 SCF Done:  E(RM062X) =  -346.947919571     A.U. after    4 cycles
 Optimization completed.
    -- Stationary point found.
 Normal termination of Gaussian 16 at Thu Sep 26 17:36:04 2019.

 ----------------------------------------------------------------------
 #P Geom=AllCheck Guess=TCheck SCRF=Check Test GenChk RM062X/CC-pVTZ Fr
 eq
 ----------------------------------------------------------------------

 Structure from the checkpoint file:  "/scratch/harms.n/gauss_scrdir/Gau-17556.chk"
 ------------------------------
 Gaussian input prepared by ASE
 ------------------------------
 Charge =  0 Multiplicity = 1

                         Standard orientation:
 ---------------------------------------------------------------------
 Center     Atomic      Atomic             Coordinates (Angstroms)
 Number     Number       Type             X           Y           Z
 ---------------------------------------------------------------------
      1          8           0       -0.014694   -0.103787   -0.301602
      2          8           0       -2.676228   -0.759526   -0.159971
      3          6           0        1.265428   -0.031435    0.332097
      4          6           0        2.080492    1.112925   -0.246330
      5          6           0        1.931375   -1.372370    0.106856
      6          6           0       -0.935968    0.818861    0.125341
      7          6           0       -2.215773    0.474589    0.167482
      8          1           0        1.106627    0.127238    1.403959
      9          1           0        2.227126    0.953712   -1.314878
     10          1           0        1.585419    2.072883   -0.106125
     11          1           0        3.055887    1.163642    0.237162
     12          1           0        2.039384   -1.553011   -0.963006
     13          1           0        1.333668   -2.174441    0.536419
     14          1           0        2.920226   -1.387936    0.563500
     15          1           0       -0.593266    1.811394    0.380396
     16          1           0       -2.989970    1.169892    0.450996
     17          1           0       -1.911049   -1.292298   -0.408508
 ---------------------------------------------------------------------

 SCF Done:  E(RM062X) =  -346.947919571     A.U. after    1 cycles

 The electronic state is 1-A.
 Alpha  occ. eigenvalues --  -19.64527 -19.63891 -10.60046 -10.58143 -10.57310
 Alpha  occ. eigenvalues --  -10.53302 -10.53213  -1.18994  -1.16310  -0.90167
 Alpha  occ. eigenvalues --   -0.82972  -0.79304  -0.70584  -0.66592  -0.60453
 Alpha  occ. eigenvalues --   -0.59755  -0.54197  -0.51933  -0.49357  -0.48258
 Alpha  occ. eigenvalues --   -0.46393  -0.45846  -0.45148  -0.43956  -0.42863
 Alpha  occ. eigenvalues --   -0.39566  -0.37537  -0.26536
 Alpha virt. eigenvalues --    0.06152   0.07918   0.08494   0.10080   0.11150
 Alpha virt. eigenvalues --    0.11736   0.12181   0.14174   0.15406   0.17548
 Alpha virt. eigenvalues --    0.18164   0.18664   0.20691   0.22837   0.24996

 Mulliken charges:
               1
     1  O   -0.295882
     2  O   -0.347472
     3  C    0.024966
     4  C   -0.346846
     5  C   -0.346932
     6  C   -0.067125
     7  C   -0.016243
     8  H    0.129336
     9  H    0.127042
    10  H    0.120088
    11  H    0.123729
    12  H    0.124078
    13  H    0.123453
    14  H    0.112115
    15  H    0.122928
    16  H    0.147624
    17  H    0.265142
 Sum of Mulliken charges =  -0.00000

 Dipole moment (field-independent basis, Debye):
    X=              2.2575    Y=              0.6208    Z=              0.7057  Tot=              2.4454
 Quadrupole moment (field-independent basis, Debye-Ang):
   XX=            -46.1219   YY=            -40.9232   ZZ=            -45.0682
   XY=             -2.4825   XZ=             -0.1667   YZ=              1.2558

  Exact polarizability:  87.668   1.124  66.019  -0.614   1.500  52.305
 Approx polarizability:  93.011   3.637  75.676  -0.068   2.835  66.971

                      1                      2                      3
                      A                      A                      A
 Frequencies --     17.2748                85.4457               168.3281
 Red. masses --      4.0140                 3.4730                 2.8742
 Frc consts  --      0.0007                 0.0149                 0.0480
 IR Inten    --      0.5631                 0.5602                 2.2531

                      4                      5                      6
                      A                      A                      A
 Frequencies --    209.0125               251.7603               272.4837
 Red. masses --      1.0476                 1.7535                 1.7103
 Frc consts  --      0.0270                 0.0655                 0.0748
 IR Inten    --      0.0121                 1.2702                 0.3147

                      7                      8                      9
                      A                      A                      A
 Frequencies --    362.4197               451.9583               458.3372
 Red. masses --      2.2914                 1.9162                 1.8739
 Frc consts  --      0.1773                 0.2306                 0.2319
 IR Inten    --      0.4658                39.4704                26.2256

                     10                     11                     12
                      A                      A                      A
 Frequencies --    485.4175               577.2305               719.5669
 Red. masses --      1.8535                 3.2545                 2.9151
 Frc consts  --      0.2573                 0.6389                 0.8893
 IR Inten    --     29.4886                17.0717                19.0650

                     13                     14                     15
                      A                      A                      A
 Frequencies --    757.3006               877.8387               910.4047
 Red. masses --      1.3872                 2.5768                 1.2738
 Frc consts  --      0.4687                 1.1699                 0.6221
 IR Inten    --     30.3827                 2.0926                 6.8973

                     16                     17                     18
                      A                      A                      A
 Frequencies --    935.8751               950.0682               980.4040
 Red. masses --      1.1625                 1.4792                 2.4058
 Frc consts  --      0.5999                 0.7866                 1.3624
 IR Inten    --      0.4810                 0.6145                14.6011

                     19                     20                     21
                      A                      A                      A
 Frequencies --   1094.1490              1148.2964              1170.0058
 Red. masses --      2.9491                 2.3629                 2.2366
 Frc consts  --      2.0802                 1.8357                 1.8039
 IR Inten    --     64.9976               220.4139               107.8236

                     22                     23                     24
                      A                      A                      A
 Frequencies --   1183.8474              1209.1718              1250.1332
 Red. masses --      2.2446                 1.8897                 1.3339
 Frc consts  --      1.8534                 1.6279                 1.2282
 IR Inten    --     39.1229                62.8135                59.4597

                     25                     26                     27
                      A                      A                      A
 Frequencies --   1369.2221              1377.9722              1381.8726
 Red. masses --      1.4257                 1.3117                 1.2451
 Frc consts  --      1.5748                 1.4675                 1.4009
 IR Inten    --      1.1892                 5.8001                67.3690

                     28                     29                     30
                      A                      A                      A
 Frequencies --   1412.3252              1420.8393              1437.4090
 Red. masses --      1.4973                 1.2680                 1.4183
 Frc consts  --      1.7597                 1.5081                 1.7265
 IR Inten    --     19.1594                32.5308                70.3132

                     31                     32                     33
                      A                      A                      A
 Frequencies --   1484.3597              1488.6153              1499.1561
 Red. masses --      1.0506                 1.0485                 1.0569
 Frc consts  --      1.3639                 1.3690                 1.3995
 IR Inten    --      1.7997                 0.2430                 6.2611

                     34                     35                     36
                      A                      A                      A
 Frequencies --   1513.3695              1778.7748              3037.2280
 Red. masses --      1.0587                 6.3219                 1.0847
 Frc consts  --      1.4286                11.7852                 5.8956
 IR Inten    --      7.3907                57.4171                24.5060

                     37                     38                     39
                      A                      A                      A
 Frequencies --   3066.2186              3069.4208              3140.3933
 Red. masses --      1.0349                 1.0354                 1.1029
 Frc consts  --      5.7327                 5.7474                 6.4085
 IR Inten    --     12.8133                 9.9260                 1.1269

                     40                     41                     42
                      A                      A                      A
 Frequencies --   3144.9592              3146.6731              3151.8618
 Red. masses --      1.1020                 1.1021                 1.1030
 Frc consts  --      6.4219                 6.4292                 6.4557
 IR Inten    --     18.0601                31.7831                20.0049

                     43                     44                     45
                      A                      A                      A
 Frequencies --   3224.3286              3260.3932              3828.2823
 Red. masses --      1.0881                 1.0996                 1.0646
 Frc consts  --      6.6649                 6.8870                 9.1929
 IR Inten    --      7.5589                 8.4487                54.6314

 - Thermochemistry -
 -------------------
 Temperature   298.150 Kelvin.  Pressure   1.00000 Atm.
 Atom     1 has atomic number  8 and mass  15.99491

 Molecular mass:   102.06808 amu.
 Principal axes and moments of inertia in atomic units:
                           1         2         3
     Eigenvalues --   321.919531269.289491516.73243
           X            0.99993  -0.01132  -0.00344
           Y            0.01133   0.99993   0.00415
           Z            0.00339  -0.00419   0.99999
 This molecule is an asymmetric top.
 Rotational symmetry number  1.
 Rotational temperatures (Kelvin)      0.26905     0.06824     0.05711
 Rotational constants (GHZ):           5.60619     1.42185     1.18989
 Zero-point vibrational energy     387353.2 (Joules/Mol)
                                   92.57965 (Kcal/Mol)
 Warning -- explicit consideration of  11 degrees of freedom as
           vibrations may cause significant error
 Vibrational temperatures:     24.85   122.94   242.19   300.72   362.23
          (Kelvin)            392.04   521.44   650.27   659.45   698.41
                              830.51  1035.30  1089.59  1263.01  1309.87
                             1346.52  1366.94  1410.58  1574.24  1652.14
                             1683.38  1703.29  1739.73  1798.66  1970.01
                             1982.59  1988.21  2032.02  2044.27  2068.11
                             2135.66  2141.79  2156.95  2177.40  2559.26
                             4369.89  4411.60  4416.21  4518.33  4524.89
                             4527.36  4534.83  4639.09  4690.98  5508.04

 Zero-point correction=                           0.147535 (Hartree/Particle)
 Thermal correction to Energy=                    0.156027
 Thermal correction to Enthalpy=                  0.156971
 Thermal correction to Gibbs Free Energy=         0.113431
 Sum of electronic and zero-point Energies=           -346.800385
 Sum of electronic and thermal Energies=              -346.791893
 Sum of electronic and thermal Enthalpies=            -346.790948
 Sum of electronic and thermal Free Energies=         -346.834489

                     E (Thermal)             CV                S
                      KCal/Mol        Cal/Mol-Kelvin    Cal/Mol-Kelvin
 Total                   97.908             29.841             91.639
 Electronic               0.000              0.000              0.000
 Translational            0.889              2.981             39.779
 Rotational               0.889              2.981             27.918
 Vibrational             96.131             23.879             23.942
 Vibration     1          0.593              1.986              6.925
 Vibration     2          0.601              1.959              3.762
 Vibration     3          0.625              1.881              2.454
 Vibration     4          0.642              1.827              2.052
 Vibration     5          0.664              1.760              1.718
 Vibration     6          0.675              1.724              1.580
 Vibration     7          0.736              1.550              1.112
 Vibration     8          0.811              1.357              0.790
 Vibration     9          0.816              1.342              0.771
 Vibration    10          0.841              1.282              0.696
 Vibration    11          0.934              1.081              0.491

                           ! Non-Optimized Parameters !
 Normal termination of Gaussian 16 at Thu Sep 26 19:25:07 2019.
