 Gaussian 16, Revision A.03,
 Gaussian 16:  EM64L-G16RevA.03 25-Dec-2016

 ----------------------------------------------------------------------
 #p m062x/cc-pVTZ opt=(calcfc,maxcycles=900,Tight) freq IOP(7/33=1,2/16
 =3) scf=(maxcycle=900)
 ----------------------------------------------------------------------

 ------------------------------
 Gaussian input prepared by ASE
 ------------------------------
 Symbolic Z-matrix:
 Charge =  0 Multiplicity = 1

 SCF Done:  E(RM062X) =  -346.908437234     A.U. after   13 cycles
 SCF Done:  E(RM062X) =  -346.913346310     A.U. after   12 cycles
 SCF Done:  E(RM062X) =  -346.931307899     A.U. after   12 cycles
 SCF Done:  E(RM062X) =  -346.886655784     A.U. after   13 cycles
 SCF Done:  E(RM062X) =  -346.935402512     A.U. after   12 cycles
 SCF Done:  E(RM062X) =  -346.937012412     A.U. after   12 cycles
 SCF Done:  E(RM062X) =  -346.888382014     A.U. after   13 cycles
 SCF Done:  E(RM062X) =  -346.937597943     A.U. after   10 cycles
 SCF Done:  E(RM062X) =  -346.938435895     A.U. after   11 cycles
 SCF Done:  E(RM062X) =  -346.939356823     A.U. after   12 cycles
 SCF Done:  E(RM062X) =  -346.940638334     A.U. after    3 cycles
 SCF Done:  E(RM062X) =  -346.940638334     A.U. after    4 cycles
 SCF Done:  E(RM062X) =  -346.940638334     A.U. after    3 cycles
 SCF Done:  E(RM062X) =  -346.940638334     A.U. after    3 cycles
 SCF Done:  E(RM062X) =  -346.940638334     A.U. after    3 cycles
 SCF Done:  E(RM062X) =  -346.940638334     A.U. after    4 cycles
 SCF Done:  E(RM062X) =  -346.940638334     A.U. after    4 cycles
 SCF Done:  E(RM062X) =  -346.940638334     A.U. after    5 cycles
 SCF Done:  E(RM062X) =  -346.940638334     A.U. after    5 cycles
 Optimization completed.
    -- Stationary point found.
 Normal termination of Gaussian 16 at Sun Sep 29 09:32:10 2019.

 ----------------------------------------------------------------------
 #P Geom=AllCheck Guess=TCheck SCRF=Check Test GenChk RM062X/CC-pVTZ Fr
 eq
 ----------------------------------------------------------------------

 Structure from the checkpoint file:  "/scratch/harms.n/gauss_scrdir/Gau-5814.chk"
 ------------------------------
 Gaussian input prepared by ASE
 ------------------------------
 Charge =  0 Multiplicity = 1

                         Standard orientation:
 ---------------------------------------------------------------------
 Center     Atomic      Atomic             Coordinates (Angstroms)
 Number     Number       Type             X           Y           Z
 ---------------------------------------------------------------------
      1          8           0        0.254258   -0.422004   -0.538669
      2          8           0       -3.256156    0.053605    0.233135
      3          6           0        1.320934   -0.027686    0.330245
      4          6           0        1.753126    1.405265    0.065504
      5          6           0        2.443955   -1.012005    0.081729
      6          6           0       -0.936729    0.219373   -0.331970
      7          6           0       -2.004616   -0.453901    0.072726
      8          1           0        0.964182   -0.119939    1.362366
      9          1           0        2.035591    1.516137   -0.982236
     10          1           0        0.961153    2.117527    0.292740
     11          1           0        2.613274    1.656302    0.685728
     12          1           0        2.779790   -0.933455   -0.952658
     13          1           0        2.101676   -2.030192    0.256978
     14          1           0        3.286835   -0.803589    0.739606
     15          1           0       -0.980325    1.280467   -0.567129
     16          1           0       -1.951295   -1.510859    0.292402
     17          1           0       -3.255715    0.988514    0.007070
 ---------------------------------------------------------------------

 SCF Done:  E(RM062X) =  -346.940638334     A.U. after    1 cycles

 The electronic state is 1-A.
 Alpha  occ. eigenvalues --  -19.65132 -19.63428 -10.59267 -10.58901 -10.57462
 Alpha  occ. eigenvalues --  -10.52908 -10.52504  -1.18433  -1.17015  -0.89652
 Alpha  occ. eigenvalues --   -0.82876  -0.78786  -0.70907  -0.66790  -0.59992
 Alpha  occ. eigenvalues --   -0.59595  -0.53539  -0.52494  -0.49128  -0.48055
 Alpha  occ. eigenvalues --   -0.46230  -0.45712  -0.45152  -0.44240  -0.42113
 Alpha  occ. eigenvalues --   -0.39193  -0.34946  -0.27733
 Alpha virt. eigenvalues --    0.06268   0.06659   0.07739   0.09849   0.11175
 Alpha virt. eigenvalues --    0.11873   0.13109   0.14114   0.15859   0.16683
 Alpha virt. eigenvalues --    0.18171   0.18267   0.20914   0.24447   0.25806

 Mulliken charges:
               1
     1  O   -0.275754
     2  O   -0.335620
     3  C    0.046788
     4  C   -0.377121
     5  C   -0.340525
     6  C   -0.104493
     7  C    0.012785
     8  H    0.121013
     9  H    0.132676
    10  H    0.117508
    11  H    0.123788
    12  H    0.121351
    13  H    0.124584
    14  H    0.105835
    15  H    0.110161
    16  H    0.164967
    17  H    0.252057
 Sum of Mulliken charges =   0.00000

 Dipole moment (field-independent basis, Debye):
    X=              0.9460    Y=              1.6760    Z=              0.6064  Tot=              2.0178
 Quadrupole moment (field-independent basis, Debye-Ang):
   XX=            -44.5285   YY=            -40.5203   ZZ=            -45.7617
   XY=             -3.5887   XZ=              1.8922   YZ=             -1.4930

  Exact polarizability:  88.265   1.975  65.995  -2.086  -2.683  53.204
 Approx polarizability:  91.050   4.152  77.052  -4.001  -3.094  68.823

                      1                      2                      3
                      A                      A                      A
 Frequencies --     43.8199                70.5598               175.6466
 Red. masses --      2.5721                 3.6757                 2.1247
 Frc consts  --      0.0029                 0.0108                 0.0386
 IR Inten    --      1.8688                 2.5750                10.1558

                      4                      5                      6
                      A                      A                      A
 Frequencies --    213.5357               253.0256               329.8541
 Red. masses --      1.0604                 1.1525                 2.7681
 Frc consts  --      0.0285                 0.0435                 0.1775
 IR Inten    --      0.4713                 0.6934                10.3430

                      7                      8                      9
                      A                      A                      A
 Frequencies --    341.8291               356.8748               421.2603
 Red. masses --      2.4299                 1.9963                 1.7921
 Frc consts  --      0.1673                 0.1498                 0.1874
 IR Inten    --      1.9474                19.0028                58.1486

                     10                     11                     12
                      A                      A                      A
 Frequencies --    450.3141               486.5075               618.5405
 Red. masses --      2.5556                 3.1182                 3.5777
 Frc consts  --      0.3053                 0.4348                 0.8065
 IR Inten    --      6.1107                 8.3021                 7.3964

                     13                     14                     15
                      A                      A                      A
 Frequencies --    834.9845               874.4366               934.1406
 Red. masses --      2.3757                 2.0324                 1.1867
 Frc consts  --      0.9759                 0.9156                 0.6101
 IR Inten    --     17.2240                10.7217                 0.8543

                     16                     17                     18
                      A                      A                      A
 Frequencies --    951.6220               956.6484               972.0548
 Red. masses --      1.4721                 1.3989                 1.6258
 Frc consts  --      0.7854                 0.7543                 0.9051
 IR Inten    --      0.2990                16.3629                54.2423

                     19                     20                     21
                      A                      A                      A
 Frequencies --   1128.4254              1158.5312              1179.9469
 Red. masses --      2.1296                 1.9895                 2.1572
 Frc consts  --      1.5977                 1.5733                 1.7695
 IR Inten    --    120.7116                23.8702                41.9442

                     22                     23                     24
                      A                      A                      A
 Frequencies --   1201.6201              1228.1881              1280.6651
 Red. masses --      1.9734                 4.0979                 1.9043
 Frc consts  --      1.6788                 3.6420                 1.8401
 IR Inten    --     16.5294               344.6499                51.4580

                     25                     26                     27
                      A                      A                      A
 Frequencies --   1327.3635              1369.6560              1376.3185
 Red. masses --      1.1865                 1.2515                 1.2616
 Frc consts  --      1.2317                 1.3832                 1.4081
 IR Inten    --      0.4985                63.7854                 3.8232

                     28                     29                     30
                      A                      A                      A
 Frequencies --   1396.7832              1410.9997              1418.8587
 Red. masses --      1.3282                 1.4460                 1.3449
 Frc consts  --      1.5267                 1.6962                 1.5953
 IR Inten    --     39.9129                30.9471                10.9282

                     31                     32                     33
                      A                      A                      A
 Frequencies --   1484.0107              1489.4805              1499.6569
 Red. masses --      1.0566                 1.0473                 1.0555
 Frc consts  --      1.3709                 1.3690                 1.3986
 IR Inten    --      1.2516                 1.0057                 2.7647

                     34                     35                     36
                      A                      A                      A
 Frequencies --   1515.0669              1774.0305              3029.5011
 Red. masses --      1.0536                 5.9149                 1.0844
 Frc consts  --      1.4249                10.9678                 5.8636
 IR Inten    --      8.1584                21.5519                25.6265

                     37                     38                     39
                      A                      A                      A
 Frequencies --   3064.2319              3069.1748              3136.9708
 Red. masses --      1.0355                 1.0355                 1.0984
 Frc consts  --      5.7286                 5.7468                 6.3683
 IR Inten    --     11.9694                13.2898                 7.5096

                     40                     41                     42
                      A                      A                      A
 Frequencies --   3138.8160              3145.1097              3148.0345
 Red. masses --      1.0990                 1.1016                 1.0963
 Frc consts  --      6.3793                 6.4204                 6.4012
 IR Inten    --      2.2779                34.0020                50.5888

                     43                     44                     45
                      A                      A                      A
 Frequencies --   3154.4904              3233.5055              3866.4265
 Red. masses --      1.1028                 1.0935                 1.0655
 Frc consts  --      6.4656                 6.7364                 9.3848
 IR Inten    --     16.8738                 5.6029                48.9301

 - Thermochemistry -
 -------------------
 Temperature   298.150 Kelvin.  Pressure   1.00000 Atm.
 Atom     1 has atomic number  8 and mass  15.99491

 Molecular mass:   102.06808 amu.
 Principal axes and moments of inertia in atomic units:
                           1         2         3
     Eigenvalues --   270.642291511.811821685.10541
           X            0.99998  -0.00420   0.00451
           Y            0.00431   0.99966  -0.02590
           Z           -0.00440   0.02592   0.99965
 This molecule is an asymmetric top.
 Rotational symmetry number  1.
 Rotational temperatures (Kelvin)      0.32003     0.05729     0.05140
 Rotational constants (GHZ):           6.66836     1.19376     1.07100
 Zero-point vibrational energy     385864.6 (Joules/Mol)
                                   92.22385 (Kcal/Mol)
 Warning -- explicit consideration of  12 degrees of freedom as
           vibrations may cause significant error
 Vibrational temperatures:     63.05   101.52   252.72   307.23   364.05
          (Kelvin)            474.59   491.82   513.46   606.10   647.90
                              699.98   889.94  1201.36  1258.12  1344.02
                             1369.17  1376.40  1398.57  1623.55  1666.87
                             1697.68  1728.86  1767.09  1842.59  1909.78
                             1970.63  1980.22  2009.66  2030.11  2041.42
                             2135.16  2143.03  2157.67  2179.84  2552.43
                             4358.78  4408.75  4415.86  4513.40  4516.06
                             4525.11  4529.32  4538.61  4652.29  5562.93

 Zero-point correction=                           0.146968 (Hartree/Particle)
 Thermal correction to Energy=                    0.155587
 Thermal correction to Enthalpy=                  0.156531
 Thermal correction to Gibbs Free Energy=         0.113426
 Sum of electronic and zero-point Energies=           -346.793670
 Sum of electronic and thermal Energies=              -346.785052
 Sum of electronic and thermal Enthalpies=            -346.784107
 Sum of electronic and thermal Free Energies=         -346.827212

                     E (Thermal)             CV                S
                      KCal/Mol        Cal/Mol-Kelvin    Cal/Mol-Kelvin
 Total                   97.632             30.305             90.722
 Electronic               0.000              0.000              0.000
 Translational            0.889              2.981             39.779
 Rotational               0.889              2.981             28.024
 Vibrational             95.855             24.344             22.919
 Vibration     1          0.595              1.980              5.078
 Vibration     2          0.598              1.968              4.138
 Vibration     3          0.628              1.872              2.374
 Vibration     4          0.644              1.820              2.013
 Vibration     5          0.664              1.758              1.709
 Vibration     6          0.713              1.616              1.261
 Vibration     7          0.721              1.592              1.204
 Vibration     8          0.732              1.561              1.136
 Vibration     9          0.784              1.424              0.888
 Vibration    10          0.809              1.360              0.795
 Vibration    11          0.843              1.280              0.693
 Vibration    12          0.978              0.993              0.419

                           ! Non-Optimized Parameters !
 Normal termination of Gaussian 16 at Sun Sep 29 10:56:33 2019.
