 Gaussian 16, Revision A.03,
 Gaussian 16:  EM64L-G16RevA.03 25-Dec-2016

 ----------------------------------------------------------------------
 #p m062x/cc-pVTZ opt=(calcfc,maxcycles=900,Tight) freq IOP(7/33=1,2/16
 =3) scf=(maxcycle=900)
 ----------------------------------------------------------------------

 ------------------------------
 Gaussian input prepared by ASE
 ------------------------------
 Symbolic Z-matrix:
 Charge =  0 Multiplicity = 1

 SCF Done:  E(RM062X) =  -346.913195085     A.U. after   13 cycles
 SCF Done:  E(RM062X) =  -346.918254944     A.U. after   14 cycles
 SCF Done:  E(RM062X) =  -346.930947376     A.U. after   12 cycles
 SCF Done:  E(RM062X) =  -346.925450828     A.U. after   12 cycles
 SCF Done:  E(RM062X) =  -346.936866968     A.U. after   12 cycles
 SCF Done:  E(RM062X) =  -346.939156213     A.U. after   12 cycles
 SCF Done:  E(RM062X) =  -346.937707185     A.U. after   12 cycles
 SCF Done:  E(RM062X) =  -346.938758761     A.U. after   13 cycles
 SCF Done:  E(RM062X) =  -346.940100349     A.U. after   10 cycles
 SCF Done:  E(RM062X) =  -346.940097388     A.U. after   12 cycles
 SCF Done:  E(RM062X) =  -346.941838186     A.U. after   11 cycles
 SCF Done:  E(RM062X) =  -346.941931440     A.U. after    9 cycles
 SCF Done:  E(RM062X) =  -346.941991883     A.U. after    9 cycles
 SCF Done:  E(RM062X) =  -346.941993645     A.U. after    9 cycles
 SCF Done:  E(RM062X) =  -346.941993751     A.U. after    8 cycles
 SCF Done:  E(RM062X) =  -346.941993733     A.U. after    7 cycles
 SCF Done:  E(RM062X) =  -346.941993728     A.U. after    5 cycles
 SCF Done:  E(RM062X) =  -346.941993735     A.U. after    7 cycles
 SCF Done:  E(RM062X) =  -346.941993727     A.U. after    5 cycles
 Optimization completed.
    -- Stationary point found.
 Normal termination of Gaussian 16 at Fri Sep 27 00:16:04 2019.

 ----------------------------------------------------------------------
 #P Geom=AllCheck Guess=TCheck SCRF=Check Test GenChk RM062X/CC-pVTZ Fr
 eq
 ----------------------------------------------------------------------

 Structure from the checkpoint file:  "/scratch/harms.n/gauss_scrdir/Gau-9857.chk"
 ------------------------------
 Gaussian input prepared by ASE
 ------------------------------
 Charge =  0 Multiplicity = 1

                         Standard orientation:
 ---------------------------------------------------------------------
 Center     Atomic      Atomic             Coordinates (Angstroms)
 Number     Number       Type             X           Y           Z
 ---------------------------------------------------------------------
      1          8           0       -0.294648   -0.687853   -0.211757
      2          8           0        3.233532    0.133484    0.023498
      3          6           0       -1.403874    0.017666    0.349284
      4          6           0       -2.648711   -0.699209   -0.126805
      5          6           0       -1.378623    1.477514   -0.066811
      6          6           0        0.914956   -0.370337    0.337538
      7          6           0        1.965400   -0.092674   -0.420840
      8          1           0       -1.333261   -0.052365    1.442381
      9          1           0       -2.702858   -0.656419   -1.214833
     10          1           0       -2.627198   -1.744106    0.177147
     11          1           0       -3.540625   -0.228396    0.284948
     12          1           0       -1.450459    1.551059   -1.152717
     13          1           0       -0.453890    1.958063    0.250393
     14          1           0       -2.217656    2.014076    0.375810
     15          1           0        0.976486   -0.408553    1.424822
     16          1           0        1.885216   -0.048478   -1.497437
     17          1           0        3.258285    0.052314    0.981365
 ---------------------------------------------------------------------

 SCF Done:  E(RM062X) =  -346.941993727     A.U. after    1 cycles

 The electronic state is 1-A.
 Alpha  occ. eigenvalues --  -19.64883 -19.63745 -10.59443 -10.58582 -10.57637
 Alpha  occ. eigenvalues --  -10.52609 -10.52565  -1.18267  -1.17275  -0.89691
 Alpha  occ. eigenvalues --   -0.82907  -0.78618  -0.70514  -0.67306  -0.60954
 Alpha  occ. eigenvalues --   -0.58322  -0.53328  -0.52463  -0.50364  -0.47283
 Alpha  occ. eigenvalues --   -0.46052  -0.45712  -0.44953  -0.43480  -0.41873
 Alpha  occ. eigenvalues --   -0.39641  -0.36442  -0.26955
 Alpha virt. eigenvalues --    0.06358   0.07196   0.07651   0.09071   0.11327
 Alpha virt. eigenvalues --    0.12262   0.13383   0.14065   0.15165   0.16581
 Alpha virt. eigenvalues --    0.18273   0.18771   0.20960   0.23271   0.25719

 Mulliken charges:
               1
     1  O   -0.263862
     2  O   -0.339332
     3  C    0.017709
     4  C   -0.340455
     5  C   -0.359525
     6  C   -0.107635
     7  C    0.012271
     8  H    0.121779
     9  H    0.123069
    10  H    0.124788
    11  H    0.106579
    12  H    0.126507
    13  H    0.129513
    14  H    0.122024
    15  H    0.110097
    16  H    0.165693
    17  H    0.250782
 Sum of Mulliken charges =  -0.00000

 Dipole moment (field-independent basis, Debye):
    X=             -1.0395    Y=              0.6903    Z=              1.8014  Tot=              2.1913
 Quadrupole moment (field-independent basis, Debye-Ang):
   XX=            -44.5372   YY=            -46.2817   ZZ=            -39.9641
   XY=             -0.9389   XZ=              3.5146   YZ=             -0.6172

  Exact polarizability:  88.347   2.386  57.169  -2.984  -1.318  61.851
 Approx polarizability:  91.107   3.404  67.433  -5.679  -1.407  78.908

                      1                      2                      3
                      A                      A                      A
 Frequencies --     63.5166                73.2483               160.3950
 Red. masses --      2.5276                 3.1037                 2.3824
 Frc consts  --      0.0060                 0.0098                 0.0361
 IR Inten    --      3.7626                 2.9023                 8.6665

                      4                      5                      6
                      A                      A                      A
 Frequencies --    207.9706               253.3893               303.7416
 Red. masses --      1.0352                 1.1125                 1.9260
 Frc consts  --      0.0264                 0.0421                 0.1047
 IR Inten    --      0.3477                 0.8577                26.2264

                      7                      8                      9
                      A                      A                      A
 Frequencies --    334.6634               367.5715               382.6021
 Red. masses --      2.5083                 2.9789                 1.8163
 Frc consts  --      0.1655                 0.2371                 0.1566
 IR Inten    --      0.2210                 9.5651                52.3211

                     10                     11                     12
                      A                      A                      A
 Frequencies --    464.6870               484.7768               609.2959
 Red. masses --      3.3611                 2.6516                 3.7746
 Frc consts  --      0.4276                 0.3672                 0.8256
 IR Inten    --      1.3127                11.1185                 8.6402

                     13                     14                     15
                      A                      A                      A
 Frequencies --    842.0979               868.0165               934.9588
 Red. masses --      2.1324                 2.1723                 1.1724
 Frc consts  --      0.8909                 0.9643                 0.6038
 IR Inten    --     15.3583                 5.9967                 0.6220

                     16                     17                     18
                      A                      A                      A
 Frequencies --    948.5219               951.8620               970.6877
 Red. masses --      1.2695                 1.3435                 2.0635
 Frc consts  --      0.6730                 0.7172                 1.1456
 IR Inten    --     29.4656                15.3038                26.6090

                     19                     20                     21
                      A                      A                      A
 Frequencies --   1128.1408              1163.9979              1181.0462
 Red. masses --      2.1179                 2.0063                 2.1631
 Frc consts  --      1.5882                 1.6016                 1.7777
 IR Inten    --    130.5639                 7.6116                72.5604

                     22                     23                     24
                      A                      A                      A
 Frequencies --   1199.9120              1233.4040              1279.9034
 Red. masses --      2.0515                 4.1855                 1.7824
 Frc consts  --      1.7402                 3.7516                 1.7203
 IR Inten    --     47.7408               316.3768                35.0839

                     25                     26                     27
                      A                      A                      A
 Frequencies --   1325.0917              1370.4569              1372.6649
 Red. masses --      1.2007                 1.2578                 1.3117
 Frc consts  --      1.2421                 1.3918                 1.4562
 IR Inten    --      0.9023                42.6869                52.8694

                     28                     29                     30
                      A                      A                      A
 Frequencies --   1401.8734              1407.1158              1421.1083
 Red. masses --      1.2835                 1.4576                 1.3395
 Frc consts  --      1.4861                 1.7004                 1.5939
 IR Inten    --     29.1499                24.7483                10.3722

                     31                     32                     33
                      A                      A                      A
 Frequencies --   1482.4860              1489.6654              1495.4107
 Red. masses --      1.0578                 1.0486                 1.0545
 Frc consts  --      1.3697                 1.3710                 1.3894
 IR Inten    --      0.8740                 0.1857                 6.3727

                     34                     35                     36
                      A                      A                      A
 Frequencies --   1513.4782              1784.3030              3009.6232
 Red. masses --      1.0576                 6.0081                 1.0837
 Frc consts  --      1.4273                11.2701                 5.7832
 IR Inten    --      5.8297                12.5223                36.5612

                     37                     38                     39
                      A                      A                      A
 Frequencies --   3063.4951              3070.2637              3120.3581
 Red. masses --      1.0350                 1.0353                 1.0899
 Frc consts  --      5.7231                 5.7497                 6.2526
 IR Inten    --     10.6745                13.7991                35.4047

                     40                     41                     42
                      A                      A                      A
 Frequencies --   3137.6902              3144.4675              3146.2133
 Red. masses --      1.1025                 1.1021                 1.1019
 Frc consts  --      6.3954                 6.4206                 6.4266
 IR Inten    --      6.0782                15.7335                31.5651

                     43                     44                     45
                      A                      A                      A
 Frequencies --   3154.5983              3236.4263              3869.1169
 Red. masses --      1.1030                 1.0934                 1.0656
 Frc consts  --      6.4670                 6.7479                 9.3984
 IR Inten    --     16.8192                 6.1424                48.6160

 - Thermochemistry -
 -------------------
 Temperature   298.150 Kelvin.  Pressure   1.00000 Atm.
 Atom     1 has atomic number  8 and mass  15.99491

 Molecular mass:   102.06808 amu.
 Principal axes and moments of inertia in atomic units:
                           1         2         3
     Eigenvalues --   257.610881509.578571649.96218
           X            0.99998  -0.00239   0.00587
           Y            0.00248   0.99987  -0.01590
           Z           -0.00583   0.01592   0.99986
 This molecule is an asymmetric top.
 Rotational symmetry number  1.
 Rotational temperatures (Kelvin)      0.33622     0.05738     0.05249
 Rotational constants (GHZ):           7.00569     1.19553     1.09381
 Zero-point vibrational energy     385343.0 (Joules/Mol)
                                   92.09918 (Kcal/Mol)
 Warning -- explicit consideration of  12 degrees of freedom as
           vibrations may cause significant error
 Vibrational temperatures:     91.39   105.39   230.77   299.22   364.57
          (Kelvin)            437.02   481.51   528.85   550.48   668.58
                              697.49   876.64  1211.59  1248.88  1345.20
                             1364.71  1369.52  1396.60  1623.14  1674.73
                             1699.26  1726.41  1774.59  1841.50  1906.51
                             1971.78  1974.96  2016.98  2024.53  2044.66
                             2132.97  2143.30  2151.56  2177.56  2567.21
                             4330.18  4407.69  4417.42  4489.50  4514.44
                             4524.19  4526.70  4538.76  4656.50  5566.80

 Zero-point correction=                           0.146769 (Hartree/Particle)
 Thermal correction to Energy=                    0.155435
 Thermal correction to Enthalpy=                  0.156380
 Thermal correction to Gibbs Free Energy=         0.113474
 Sum of electronic and zero-point Energies=           -346.795224
 Sum of electronic and thermal Energies=              -346.786558
 Sum of electronic and thermal Enthalpies=            -346.785614
 Sum of electronic and thermal Free Energies=         -346.828520

                     E (Thermal)             CV                S
                      KCal/Mol        Cal/Mol-Kelvin    Cal/Mol-Kelvin
 Total                   97.537             30.444             90.304
 Electronic               0.000              0.000              0.000
 Translational            0.889              2.981             39.779
 Rotational               0.889              2.981             27.953
 Vibrational             95.760             24.482             22.572
 Vibration     1          0.597              1.972              4.345
 Vibration     2          0.599              1.967              4.064
 Vibration     3          0.622              1.891              2.545
 Vibration     4          0.641              1.828              2.061
 Vibration     5          0.665              1.757              1.707
 Vibration     6          0.695              1.667              1.396
 Vibration     7          0.716              1.606              1.237
 Vibration     8          0.740              1.539              1.090
 Vibration     9          0.752              1.507              1.029
 Vibration    10          0.822              1.328              0.753
 Vibration    11          0.841              1.284              0.697
 Vibration    12          0.968              1.012              0.434

 Optimization completed.
    -- Stationary point found.
 Normal termination of Gaussian 16 at Fri Sep 27 01:33:33 2019.
