 Gaussian 16, Revision A.03,
 Gaussian 16:  EM64L-G16RevA.03 25-Dec-2016

 ----------------------------------------------------------------------
 #p m062x/cc-pVTZ opt=(calcfc,maxcycles=900,Tight) freq IOP(7/33=1,2/16
 =3) scf=(maxcycle=900)
 ----------------------------------------------------------------------

 ------------------------------
 Gaussian input prepared by ASE
 ------------------------------
 Symbolic Z-matrix:
 Charge =  0 Multiplicity = 1

 SCF Done:  E(RM062X) =  -346.923967331     A.U. after   12 cycles
 SCF Done:  E(RM062X) =  -346.936965621     A.U. after   14 cycles
 SCF Done:  E(RM062X) =  -346.936027227     A.U. after   12 cycles
 SCF Done:  E(RM062X) =  -346.936954454     A.U. after   12 cycles
 SCF Done:  E(RM062X) =  -346.937028403     A.U. after   10 cycles
 SCF Done:  E(RM062X) =  -346.937843919     A.U. after   11 cycles
 SCF Done:  E(RM062X) =  -346.938721874     A.U. after   11 cycles
 SCF Done:  E(RM062X) =  -346.939340525     A.U. after   11 cycles
 SCF Done:  E(RM062X) =  -346.939582018     A.U. after   12 cycles
 SCF Done:  E(RM062X) =  -346.939334707     A.U. after   12 cycles
 SCF Done:  E(RM062X) =  -346.941413241     A.U. after   10 cycles
 SCF Done:  E(RM062X) =  -346.941424077     A.U. after    9 cycles
 SCF Done:  E(RM062X) =  -346.941427849     A.U. after    9 cycles
 SCF Done:  E(RM062X) =  -346.941428109     A.U. after    8 cycles
 SCF Done:  E(RM062X) =  -346.941428123     A.U. after    7 cycles
 SCF Done:  E(RM062X) =  -346.941428122     A.U. after    6 cycles
 SCF Done:  E(RM062X) =  -346.941428123     A.U. after    3 cycles
 SCF Done:  E(RM062X) =  -346.941428122     A.U. after    3 cycles
 SCF Done:  E(RM062X) =  -346.941428122     A.U. after    3 cycles
 Optimization completed.
    -- Stationary point found.
 Normal termination of Gaussian 16 at Thu Sep 26 23:27:14 2019.

 ----------------------------------------------------------------------
 #P Geom=AllCheck Guess=TCheck SCRF=Check Test GenChk RM062X/CC-pVTZ Fr
 eq
 ----------------------------------------------------------------------

 Structure from the checkpoint file:  "/scratch/harms.n/gauss_scrdir/Gau-13586.chk"
 ------------------------------
 Gaussian input prepared by ASE
 ------------------------------
 Charge =  0 Multiplicity = 1

                         Standard orientation:
 ---------------------------------------------------------------------
 Center     Atomic      Atomic             Coordinates (Angstroms)
 Number     Number       Type             X           Y           Z
 ---------------------------------------------------------------------
      1          8           0        0.088275   -0.546331    0.183626
      2          8           0       -2.498556   -0.351090   -0.846309
      3          6           0        1.370830    0.065288    0.309552
      4          6           0        1.416228    1.367409   -0.470751
      5          6           0        2.378670   -0.946046   -0.191826
      6          6           0       -0.913781    0.094950    0.839981
      7          6           0       -2.149927    0.166447    0.367459
      8          1           0        1.549698    0.268834    1.373339
      9          1           0        1.228987    1.167181   -1.526147
     10          1           0        0.655631    2.060946   -0.112955
     11          1           0        2.392710    1.840871   -0.369436
     12          1           0        2.179974   -1.171776   -1.239598
     13          1           0        2.308801   -1.869728    0.379698
     14          1           0        3.390192   -0.550886   -0.105126
     15          1           0       -0.677806    0.522649    1.808671
     16          1           0       -2.924882    0.629044    0.963237
     17          1           0       -3.433173   -0.206055   -0.996705
 ---------------------------------------------------------------------

 SCF Done:  E(RM062X) =  -346.941428122     A.U. after    1 cycles

 The electronic state is 1-A.
 Alpha  occ. eigenvalues --  -19.64155 -19.63265 -10.59039 -10.57932 -10.57059
 Alpha  occ. eigenvalues --  -10.52158 -10.52149  -1.18122  -1.16350  -0.89294
 Alpha  occ. eigenvalues --   -0.83075  -0.78234  -0.68644  -0.66274  -0.61659
 Alpha  occ. eigenvalues --   -0.56619  -0.54243  -0.52589  -0.50281  -0.46562
 Alpha  occ. eigenvalues --   -0.45749  -0.45020  -0.43094  -0.42781  -0.41845
 Alpha  occ. eigenvalues --   -0.38989  -0.36568  -0.26057
 Alpha virt. eigenvalues --    0.05736   0.07899   0.08489   0.10043   0.11603
 Alpha virt. eigenvalues --    0.12166   0.12999   0.14827   0.16414   0.17235
 Alpha virt. eigenvalues --    0.18015   0.18746   0.21254   0.23613   0.25900

 Mulliken charges:
               1
     1  O   -0.245592
     2  O   -0.309207
     3  C    0.006431
     4  C   -0.346216
     5  C   -0.340863
     6  C   -0.074124
     7  C   -0.014194
     8  H    0.122393
     9  H    0.130556
    10  H    0.123417
    11  H    0.117810
    12  H    0.125228
    13  H    0.123870
    14  H    0.104458
    15  H    0.127287
    16  H    0.099485
    17  H    0.249260
 Sum of Mulliken charges =  -0.00000

 Dipole moment (field-independent basis, Debye):
    X=             -0.7035    Y=              1.5189    Z=              0.8664  Tot=              1.8848
 Quadrupole moment (field-independent basis, Debye-Ang):
   XX=            -31.1060   YY=            -45.9191   ZZ=            -43.1239
   XY=             -1.7295   XZ=              0.6407   YZ=              0.6105

  Exact polarizability:  89.923  -1.937  58.048   2.963   1.701  60.924
 Approx polarizability:  93.436  -1.210  68.256   6.400   3.108  75.289

                      1                      2                      3
                      A                      A                      A
 Frequencies --     31.2543                87.1118               140.3311
 Red. masses --      3.9049                 3.2348                 1.1640
 Frc consts  --      0.0022                 0.0145                 0.0135
 IR Inten    --      1.3735                 6.0988               106.4574

                      4                      5                      6
                      A                      A                      A
 Frequencies --    170.5925               208.6213               246.5841
 Red. masses --      3.2204                 1.0398                 1.1765
 Frc consts  --      0.0552                 0.0267                 0.0421
 IR Inten    --      0.5913                 0.0628                 0.1755

                      7                      8                      9
                      A                      A                      A
 Frequencies --    299.5101               359.0329               427.4819
 Red. masses --      3.2524                 2.3122                 2.9279
 Frc consts  --      0.1719                 0.1756                 0.3152
 IR Inten    --      0.9705                 0.2731                 5.2889

                     10                     11                     12
                      A                      A                      A
 Frequencies --    487.9953               569.7838               718.3838
 Red. masses --      2.3723                 3.4082                 3.4287
 Frc consts  --      0.3329                 0.6519                 1.0425
 IR Inten    --      1.8691                 2.9027                19.0386

                     13                     14                     15
                      A                      A                      A
 Frequencies --    767.4393               872.2571               901.5590
 Red. masses --      1.4196                 2.5003                 1.2925
 Frc consts  --      0.4926                 1.1208                 0.6190
 IR Inten    --     49.3907                 9.2694                 6.4136

                     16                     17                     18
                      A                      A                      A
 Frequencies --    935.7393               951.2078               971.0497
 Red. masses --      1.1724                 1.4670                 2.3486
 Frc consts  --      0.6049                 0.7820                 1.3048
 IR Inten    --      0.4018                 3.0134                22.7620

                     19                     20                     21
                      A                      A                      A
 Frequencies --   1082.8010              1160.6153              1177.7211
 Red. masses --      2.8264                 2.0853                 2.5014
 Frc consts  --      1.9524                 1.6550                 2.0442
 IR Inten    --     20.8546                34.8259               212.5262

                     22                     23                     24
                      A                      A                      A
 Frequencies --   1185.2286              1214.9035              1268.4442
 Red. masses --      2.1028                 2.0482                 1.2551
 Frc consts  --      1.7404                 1.7812                 1.1898
 IR Inten    --     59.3059                88.8969                73.7522

                     25                     26                     27
                      A                      A                      A
 Frequencies --   1321.7550              1373.1647              1380.6270
 Red. masses --      1.3948                 1.2872                 1.2478
 Frc consts  --      1.4357                 1.4300                 1.4014
 IR Inten    --     83.7732                 1.8087                67.1461

                     28                     29                     30
                      A                      A                      A
 Frequencies --   1408.3903              1419.6425              1449.5964
 Red. masses --      1.4548                 1.3267                 1.4915
 Frc consts  --      1.7002                 1.5754                 1.8465
 IR Inten    --     26.1258                42.0228                51.4406

                     31                     32                     33
                      A                      A                      A
 Frequencies --   1482.0720              1489.8843              1495.0432
 Red. masses --      1.0573                 1.0505                 1.0555
 Frc consts  --      1.3683                 1.3739                 1.3900
 IR Inten    --      0.7405                 0.0455                 5.4176

                     34                     35                     36
                      A                      A                      A
 Frequencies --   1513.8647              1813.9727              3009.1425
 Red. masses --      1.0615                 6.1206                 1.0836
 Frc consts  --      1.4333                11.8661                 5.7809
 IR Inten    --      7.6556                28.7325                40.2832

                     37                     38                     39
                      A                      A                      A
 Frequencies --   3063.4613              3070.6917              3139.5806
 Red. masses --      1.0346                 1.0350                 1.1031
 Frc consts  --      5.7205                 5.7501                 6.4060
 IR Inten    --     11.2149                12.8323                 6.1758

                     40                     41                     42
                      A                      A                      A
 Frequencies --   3141.9052              3147.2735              3153.6853
 Red. masses --      1.1024                 1.1021                 1.1030
 Frc consts  --      6.4118                 6.4322                 6.4637
 IR Inten    --     14.4336                32.4155                18.0161

                     43                     44                     45
                      A                      A                      A
 Frequencies --   3173.0765              3218.5841              3929.3312
 Red. masses --      1.0871                 1.0974                 1.0669
 Frc consts  --      6.4491                 6.6979                 9.7058
 IR Inten    --      9.3543                14.5776               118.4367

 - Thermochemistry -
 -------------------
 Temperature   298.150 Kelvin.  Pressure   1.00000 Atm.
 Atom     1 has atomic number  8 and mass  15.99491

 Molecular mass:   102.06808 amu.
 Principal axes and moments of inertia in atomic units:
                           1         2         3
     Eigenvalues --   332.199971321.626091385.10092
           X            0.99989  -0.00855  -0.01186
           Y            0.00873   0.99985   0.01486
           Z            0.01173  -0.01496   0.99982
 This molecule is an asymmetric top.
 Rotational symmetry number  1.
 Rotational temperatures (Kelvin)      0.26073     0.06554     0.06253
 Rotational constants (GHZ):           5.43270     1.36555     1.30297
 Zero-point vibrational energy     385379.3 (Joules/Mol)
                                   92.10787 (Kcal/Mol)
 Warning -- explicit consideration of  11 degrees of freedom as
           vibrations may cause significant error
 Vibrational temperatures:     44.97   125.33   201.91   245.44   300.16
          (Kelvin)            354.78   430.93   516.57   615.05   702.12
                              819.79  1033.59  1104.17  1254.98  1297.14
                             1346.32  1368.58  1397.12  1557.91  1669.87
                             1694.48  1705.28  1747.98  1825.01  1901.71
                             1975.68  1986.41  2026.36  2042.55  2085.65
                             2132.37  2143.61  2151.03  2178.11  2609.90
                             4329.48  4407.64  4418.04  4517.16  4520.50
                             4528.22  4537.45  4565.35  4630.82  5653.43

 Zero-point correction=                           0.146783 (Hartree/Particle)
 Thermal correction to Energy=                    0.155643
 Thermal correction to Enthalpy=                  0.156587
 Thermal correction to Gibbs Free Energy=         0.112690
 Sum of electronic and zero-point Energies=           -346.794645
 Sum of electronic and thermal Energies=              -346.785785
 Sum of electronic and thermal Enthalpies=            -346.784841
 Sum of electronic and thermal Free Energies=         -346.828739

                     E (Thermal)             CV                S
                      KCal/Mol        Cal/Mol-Kelvin    Cal/Mol-Kelvin
 Total                   97.667             30.449             92.390
 Electronic               0.000              0.000              0.000
 Translational            0.889              2.981             39.779
 Rotational               0.889              2.981             27.899
 Vibrational             95.890             24.487             24.711
 Vibration     1          0.594              1.983              5.748
 Vibration     2          0.601              1.958              3.724
 Vibration     3          0.615              1.913              2.799
 Vibration     4          0.626              1.879              2.429
 Vibration     5          0.642              1.828              2.056
 Vibration     6          0.661              1.768              1.755
 Vibration     7          0.692              1.675              1.420
 Vibration     8          0.734              1.557              1.126
 Vibration     9          0.789              1.410              0.867
 Vibration    10          0.844              1.277              0.689
 Vibration    11          0.926              1.097              0.505

 Optimization completed.
    -- Stationary point found.
 Normal termination of Gaussian 16 at Fri Sep 27 00:51:08 2019.
