 Gaussian 16, Revision A.03,
 Gaussian 16:  EM64L-G16RevA.03 25-Dec-2016

 ----------------------------------------------------------------------
 #p m062x/cc-pVTZ opt=(calcfc,maxcycles=900,Tight) freq IOP(7/33=1,2/16
 =3) scf=(maxcycle=900)
 ----------------------------------------------------------------------

 ------------------------------
 Gaussian input prepared by ASE
 ------------------------------
 Symbolic Z-matrix:
 Charge =  0 Multiplicity = 1

 SCF Done:  E(RM062X) =  -346.911636249     A.U. after   13 cycles
 SCF Done:  E(RM062X) =  -346.928489856     A.U. after   12 cycles
 SCF Done:  E(RM062X) =  -346.927381829     A.U. after   12 cycles
 SCF Done:  E(RM062X) =  -346.930237885     A.U. after   12 cycles
 SCF Done:  E(RM062X) =  -346.934988602     A.U. after   12 cycles
 SCF Done:  E(RM062X) =  -346.890587568     A.U. after   14 cycles
 SCF Done:  E(RM062X) =  -346.936929311     A.U. after   11 cycles
 SCF Done:  E(RM062X) =  -346.938285864     A.U. after   12 cycles
 SCF Done:  E(RM062X) =  -346.939023084     A.U. after   10 cycles
 SCF Done:  E(RM062X) =  -346.939903929     A.U. after   11 cycles
 SCF Done:  E(RM062X) =  -346.941991836     A.U. after    8 cycles
 SCF Done:  E(RM062X) =  -346.941993006     A.U. after    8 cycles
 SCF Done:  E(RM062X) =  -346.941993435     A.U. after    8 cycles
 SCF Done:  E(RM062X) =  -346.941993641     A.U. after    8 cycles
 SCF Done:  E(RM062X) =  -346.941993716     A.U. after    7 cycles
 SCF Done:  E(RM062X) =  -346.941993730     A.U. after    5 cycles
 SCF Done:  E(RM062X) =  -346.941993726     A.U. after    4 cycles
 SCF Done:  E(RM062X) =  -346.941993735     A.U. after    5 cycles
 SCF Done:  E(RM062X) =  -346.941993728     A.U. after    5 cycles
 Optimization completed.
    -- Stationary point found.
 Normal termination of Gaussian 16 at Thu Sep 26 16:54:01 2019.

 ----------------------------------------------------------------------
 #P Geom=AllCheck Guess=TCheck SCRF=Check Test GenChk RM062X/CC-pVTZ Fr
 eq
 ----------------------------------------------------------------------

 Structure from the checkpoint file:  "/scratch/harms.n/gauss_scrdir/Gau-581.chk"
 ------------------------------
 Gaussian input prepared by ASE
 ------------------------------
 Charge =  0 Multiplicity = 1

                         Standard orientation:
 ---------------------------------------------------------------------
 Center     Atomic      Atomic             Coordinates (Angstroms)
 Number     Number       Type             X           Y           Z
 ---------------------------------------------------------------------
      1          8           0       -0.294653   -0.687863    0.211764
      2          8           0        3.233524    0.133488   -0.023496
      3          6           0       -1.403870    0.017662   -0.349287
      4          6           0       -1.378600    1.477513    0.066793
      5          6           0       -2.648717   -0.699189    0.126814
      6          6           0        0.914953   -0.370362   -0.337536
      7          6           0        1.965390   -0.092659    0.420840
      8          1           0       -1.333258   -0.052384   -1.442382
      9          1           0       -1.450422    1.551065    1.152699
     10          1           0       -0.453869    1.958056   -0.250425
     11          1           0       -2.217638    2.014075   -0.375821
     12          1           0       -2.702865   -0.656373    1.214841
     13          1           0       -2.627215   -1.744092   -0.177114
     14          1           0       -3.540623   -0.228374   -0.284951
     15          1           0        0.976492   -0.408624   -1.424817
     16          1           0        1.885196   -0.048417    1.497434
     17          1           0        3.258288    0.052268   -0.981358
 ---------------------------------------------------------------------

 SCF Done:  E(RM062X) =  -346.941993728     A.U. after    1 cycles

 The electronic state is 1-A.
 Alpha  occ. eigenvalues --  -19.64883 -19.63745 -10.59443 -10.58582 -10.57637
 Alpha  occ. eigenvalues --  -10.52609 -10.52565  -1.18267  -1.17275  -0.89691
 Alpha  occ. eigenvalues --   -0.82907  -0.78618  -0.70514  -0.67306  -0.60954
 Alpha  occ. eigenvalues --   -0.58322  -0.53328  -0.52463  -0.50364  -0.47283
 Alpha  occ. eigenvalues --   -0.46052  -0.45712  -0.44953  -0.43480  -0.41873
 Alpha  occ. eigenvalues --   -0.39641  -0.36442  -0.26955
 Alpha virt. eigenvalues --    0.06358   0.07196   0.07651   0.09071   0.11327
 Alpha virt. eigenvalues --    0.12262   0.13383   0.14065   0.15165   0.16581
 Alpha virt. eigenvalues --    0.18273   0.18771   0.20960   0.23271   0.25719

 Mulliken charges:
               1
     1  O   -0.263864
     2  O   -0.339332
     3  C    0.017713
     4  C   -0.359528
     5  C   -0.340456
     6  C   -0.107635
     7  C    0.012270
     8  H    0.121778
     9  H    0.126508
    10  H    0.129514
    11  H    0.122024
    12  H    0.123069
    13  H    0.124787
    14  H    0.106580
    15  H    0.110097
    16  H    0.165694
    17  H    0.250782
 Sum of Mulliken charges =  -0.00000

 Dipole moment (field-independent basis, Debye):
    X=             -1.0394    Y=              0.6902    Z=             -1.8014  Tot=              2.1913
 Quadrupole moment (field-independent basis, Debye-Ang):
   XX=            -44.5371   YY=            -46.2817   ZZ=            -39.9641
   XY=             -0.9391   XZ=             -3.5146   YZ=              0.6174

  Exact polarizability:  88.346   2.386  57.169   2.983   1.319  61.850
 Approx polarizability:  91.106   3.405  67.433   5.679   1.408  78.908

                      1                      2                      3
                      A                      A                      A
 Frequencies --     63.5155                73.2457               160.3971
 Red. masses --      2.5275                 3.1038                 2.3824
 Frc consts  --      0.0060                 0.0098                 0.0361
 IR Inten    --      3.7619                 2.9014                 8.6652

                      4                      5                      6
                      A                      A                      A
 Frequencies --    207.9639               253.3860               303.7509
 Red. masses --      1.0352                 1.1125                 1.9263
 Frc consts  --      0.0264                 0.0421                 0.1047
 IR Inten    --      0.3476                 0.8577                26.2187

                      7                      8                      9
                      A                      A                      A
 Frequencies --    334.6646               367.5738               382.6122
 Red. masses --      2.5083                 2.9792                 1.8158
 Frc consts  --      0.1655                 0.2372                 0.1566
 IR Inten    --      0.2209                 9.5615                52.3340

                     10                     11                     12
                      A                      A                      A
 Frequencies --    464.6869               484.7789               609.2974
 Red. masses --      3.3611                 2.6516                 3.7746
 Frc consts  --      0.4276                 0.3672                 0.8256
 IR Inten    --      1.3130                11.1193                 8.6404

                     13                     14                     15
                      A                      A                      A
 Frequencies --    842.0956               868.0153               934.9576
 Red. masses --      2.1324                 2.1723                 1.1724
 Frc consts  --      0.8909                 0.9643                 0.6038
 IR Inten    --     15.3610                 5.9957                 0.6221

                     16                     17                     18
                      A                      A                      A
 Frequencies --    948.5210               951.8614               970.6876
 Red. masses --      1.2695                 1.3436                 2.0635
 Frc consts  --      0.6729                 0.7172                 1.1456
 IR Inten    --     29.4711                15.2971                26.6087

                     19                     20                     21
                      A                      A                      A
 Frequencies --   1128.1400              1163.9979              1181.0462
 Red. masses --      2.1179                 2.0063                 2.1631
 Frc consts  --      1.5881                 1.6016                 1.7777
 IR Inten    --    130.5622                 7.6113                72.5603

                     22                     23                     24
                      A                      A                      A
 Frequencies --   1199.9121              1233.4035              1279.9029
 Red. masses --      2.0515                 4.1855                 1.7824
 Frc consts  --      1.7403                 3.7515                 1.7203
 IR Inten    --     47.7406               316.3724                35.0859

                     25                     26                     27
                      A                      A                      A
 Frequencies --   1325.0911              1370.4559              1372.6640
 Red. masses --      1.2007                 1.2578                 1.3117
 Frc consts  --      1.2421                 1.3919                 1.4562
 IR Inten    --      0.9024                42.6738                52.8808

                     28                     29                     30
                      A                      A                      A
 Frequencies --   1401.8726              1407.1153              1421.1075
 Red. masses --      1.2835                 1.4576                 1.3395
 Frc consts  --      1.4861                 1.7004                 1.5939
 IR Inten    --     29.1482                24.7478                10.3727

                     31                     32                     33
                      A                      A                      A
 Frequencies --   1482.4855              1489.6651              1495.4105
 Red. masses --      1.0578                 1.0486                 1.0545
 Frc consts  --      1.3697                 1.3710                 1.3894
 IR Inten    --      0.8740                 0.1858                 6.3726

                     34                     35                     36
                      A                      A                      A
 Frequencies --   1513.4785              1784.2994              3009.6263
 Red. masses --      1.0576                 6.0081                 1.0837
 Frc consts  --      1.4273                11.2700                 5.7833
 IR Inten    --      5.8299                12.5235                36.5612

                     37                     38                     39
                      A                      A                      A
 Frequencies --   3063.4986              3070.2658              3120.3608
 Red. masses --      1.0350                 1.0353                 1.0899
 Frc consts  --      5.7231                 5.7497                 6.2526
 IR Inten    --     10.6745                13.7992                35.4051

                     40                     41                     42
                      A                      A                      A
 Frequencies --   3137.6935              3144.4717              3146.2156
 Red. masses --      1.1025                 1.1021                 1.1019
 Frc consts  --      6.3954                 6.4206                 6.4266
 IR Inten    --      6.0753                15.7389                31.5622

                     43                     44                     45
                      A                      A                      A
 Frequencies --   3154.6011              3236.4281              3869.1244
 Red. masses --      1.1030                 1.0934                 1.0656
 Frc consts  --      6.4670                 6.7479                 9.3985
 IR Inten    --     16.8192                 6.1424                48.6167

 - Thermochemistry -
 -------------------
 Temperature   298.150 Kelvin.  Pressure   1.00000 Atm.
 Atom     1 has atomic number  8 and mass  15.99491

 Molecular mass:   102.06808 amu.
 Principal axes and moments of inertia in atomic units:
                           1         2         3
     Eigenvalues --   257.610781509.571401649.95493
           X            0.99998  -0.00239  -0.00587
           Y            0.00248   0.99987   0.01591
           Z            0.00583  -0.01592   0.99986
 This molecule is an asymmetric top.
 Rotational symmetry number  1.
 Rotational temperatures (Kelvin)      0.33622     0.05738     0.05249
 Rotational constants (GHZ):           7.00569     1.19553     1.09381
 Zero-point vibrational energy     385343.2 (Joules/Mol)
                                   92.09923 (Kcal/Mol)
 Warning -- explicit consideration of  12 degrees of freedom as
           vibrations may cause significant error
 Vibrational temperatures:     91.38   105.38   230.78   299.21   364.57
          (Kelvin)            437.03   481.51   528.86   550.49   668.58
                              697.49   876.64  1211.59  1248.88  1345.20
                             1364.71  1369.52  1396.60  1623.14  1674.73
                             1699.26  1726.41  1774.59  1841.49  1906.51
                             1971.78  1974.96  2016.98  2024.53  2044.66
                             2132.97  2143.30  2151.56  2177.56  2567.21
                             4330.18  4407.69  4417.43  4489.50  4514.44
                             4524.19  4526.70  4538.77  4656.50  5566.81

 Zero-point correction=                           0.146769 (Hartree/Particle)
 Thermal correction to Energy=                    0.155436
 Thermal correction to Enthalpy=                  0.156380
 Thermal correction to Gibbs Free Energy=         0.113474
 Sum of electronic and zero-point Energies=           -346.795224
 Sum of electronic and thermal Energies=              -346.786558
 Sum of electronic and thermal Enthalpies=            -346.785614
 Sum of electronic and thermal Free Energies=         -346.828520

                     E (Thermal)             CV                S
                      KCal/Mol        Cal/Mol-Kelvin    Cal/Mol-Kelvin
 Total                   97.537             30.444             90.304
 Electronic               0.000              0.000              0.000
 Translational            0.889              2.981             39.779
 Rotational               0.889              2.981             27.953
 Vibrational             95.760             24.482             22.572
 Vibration     1          0.597              1.972              4.345
 Vibration     2          0.599              1.967              4.064
 Vibration     3          0.622              1.891              2.545
 Vibration     4          0.641              1.828              2.061
 Vibration     5          0.665              1.757              1.707
 Vibration     6          0.695              1.667              1.396
 Vibration     7          0.716              1.606              1.237
 Vibration     8          0.740              1.539              1.090
 Vibration     9          0.752              1.507              1.029
 Vibration    10          0.822              1.328              0.753
 Vibration    11          0.841              1.284              0.697
 Vibration    12          0.968              1.012              0.434

                           ! Non-Optimized Parameters !
 Normal termination of Gaussian 16 at Thu Sep 26 18:39:13 2019.
