 Gaussian 16, Revision A.03,
 Gaussian 16:  EM64L-G16RevA.03 25-Dec-2016

 ----------------------------------------------------------------------
 #p m062x/cc-pVTZ opt=(calcfc,maxcycles=900,Tight) freq IOP(7/33=1,2/16
 =3) scf=(maxcycle=900)
 ----------------------------------------------------------------------

 ------------------------------
 Gaussian input prepared by ASE
 ------------------------------
 Symbolic Z-matrix:
 Charge =  0 Multiplicity = 1

 SCF Done:  E(RM062X) =  -346.916924355     A.U. after   13 cycles
 SCF Done:  E(RM062X) =  -346.929841128     A.U. after   14 cycles
 SCF Done:  E(RM062X) =  -346.928520122     A.U. after   14 cycles
 SCF Done:  E(RM062X) =  -346.932974306     A.U. after   12 cycles
 SCF Done:  E(RM062X) =  -346.932484349     A.U. after   13 cycles
 SCF Done:  E(RM062X) =  -346.934404684     A.U. after   11 cycles
 SCF Done:  E(RM062X) =  -346.934858798     A.U. after   11 cycles
 SCF Done:  E(RM062X) =  -346.934999043     A.U. after   11 cycles
 SCF Done:  E(RM062X) =  -346.935062849     A.U. after   10 cycles
 SCF Done:  E(RM062X) =  -346.935198165     A.U. after   10 cycles
 SCF Done:  E(RM062X) =  -346.935266842     A.U. after    8 cycles
 SCF Done:  E(RM062X) =  -346.935266856     A.U. after    8 cycles
 SCF Done:  E(RM062X) =  -346.935266362     A.U. after    6 cycles
 SCF Done:  E(RM062X) =  -346.935266027     A.U. after    6 cycles
 SCF Done:  E(RM062X) =  -346.935266028     A.U. after    6 cycles
 SCF Done:  E(RM062X) =  -346.935266047     A.U. after    6 cycles
 SCF Done:  E(RM062X) =  -346.935266044     A.U. after    4 cycles
 SCF Done:  E(RM062X) =  -346.935266081     A.U. after    7 cycles
 SCF Done:  E(RM062X) =  -346.935266044     A.U. after    5 cycles
 Optimization completed.
    -- Stationary point found.
 Normal termination of Gaussian 16 at Thu Sep 26 20:14:50 2019.

 ----------------------------------------------------------------------
 #P Geom=AllCheck Guess=TCheck SCRF=Check Test GenChk RM062X/CC-pVTZ Fr
 eq
 ----------------------------------------------------------------------

 Structure from the checkpoint file:  "/scratch/harms.n/gauss_scrdir/Gau-37933.chk"
 ------------------------------
 Gaussian input prepared by ASE
 ------------------------------
 Charge =  0 Multiplicity = 1

                         Standard orientation:
 ---------------------------------------------------------------------
 Center     Atomic      Atomic             Coordinates (Angstroms)
 Number     Number       Type             X           Y           Z
 ---------------------------------------------------------------------
      1          8           0       -0.419375    0.002275    1.219389
      2          8           0        2.805903   -0.001077   -0.563312
      3          6           0       -1.479816    0.000506    0.264422
      4          6           0       -1.523148   -1.276032   -0.563649
      5          6           0       -1.523101    1.273948   -0.568398
      6          6           0        0.887820    0.001606    0.848023
      7          6           0        1.449533   -0.000745   -0.355461
      8          1           0       -2.358564    0.001718    0.910239
      9          1           0       -1.424508   -2.144726    0.085654
     10          1           0       -2.483395   -1.334997   -1.076139
     11          1           0       -0.740155   -1.319624   -1.316991
     12          1           0       -0.739959    1.314782   -1.321737
     13          1           0       -1.424642    2.145064    0.077679
     14          1           0       -2.483259    1.330932   -1.081278
     15          1           0        1.522099    0.003358    1.728565
     16          1           0        0.913246   -0.002659   -1.288767
     17          1           0        3.259189    0.000875    0.284540
 ---------------------------------------------------------------------

 SCF Done:  E(RM062X) =  -346.935266044     A.U. after    1 cycles

 The electronic state is 1-A.
 Alpha  occ. eigenvalues --  -19.64302 -19.64157 -10.59859 -10.58201 -10.58055
 Alpha  occ. eigenvalues --  -10.52962 -10.52961  -1.18103  -1.16865  -0.89540
 Alpha  occ. eigenvalues --   -0.83593  -0.79075  -0.72539  -0.66808  -0.60697
 Alpha  occ. eigenvalues --   -0.56840  -0.52705  -0.52542  -0.49382  -0.49248
 Alpha  occ. eigenvalues --   -0.47572  -0.45740  -0.45567  -0.43390  -0.40943
 Alpha  occ. eigenvalues --   -0.39124  -0.38198  -0.25962
 Alpha virt. eigenvalues --    0.06700   0.06944   0.07674   0.08774   0.11951
 Alpha virt. eigenvalues --    0.12378   0.12831   0.14004   0.16576   0.17808
 Alpha virt. eigenvalues --    0.18144   0.19350   0.22106   0.23062   0.25311

 Mulliken charges:
               1
     1  O   -0.247389
     2  O   -0.353842
     3  C   -0.013661
     4  C   -0.378720
     5  C   -0.378710
     6  C   -0.080828
     7  C   -0.043142
     8  H    0.152049
     9  H    0.138758
    10  H    0.123240
    11  H    0.134451
    12  H    0.134459
    13  H    0.138749
    14  H    0.123235
    15  H    0.136310
    16  H    0.165223
    17  H    0.249818
 Sum of Mulliken charges =  -0.00000

 Dipole moment (field-independent basis, Debye):
    X=             -0.8123    Y=              0.0008    Z=              0.1772  Tot=              0.8314
 Quadrupole moment (field-independent basis, Debye-Ang):
   XX=            -40.0722   YY=            -45.1783   ZZ=            -44.7179
   XY=              0.0139   XZ=              6.2367   YZ=              0.0016

  Exact polarizability:  78.458  -0.002  56.808  -1.160   0.015  64.213
 Approx polarizability:  85.342  -0.011  65.347  -6.298   0.040  85.661

                      1                      2                      3
                      A                      A                      A
 Frequencies --     69.6824               104.7189               181.8751
 Red. masses --      2.2220                 1.3531                 3.7425
 Frc consts  --      0.0064                 0.0087                 0.0729
 IR Inten    --      4.2781                 6.4242                 3.9036

                      4                      5                      6
                      A                      A                      A
 Frequencies --    202.4658               222.6185               251.7803
 Red. masses --      1.1031                 1.4870                 1.3469
 Frc consts  --      0.0266                 0.0434                 0.0503
 IR Inten    --      0.8685                 3.2645                53.4655

                      7                      8                      9
                      A                      A                      A
 Frequencies --    307.4965               350.8295               381.6381
 Red. masses --      2.7350                 3.2370                 2.4807
 Frc consts  --      0.1524                 0.2347                 0.2129
 IR Inten    --      4.3085                21.3088                 3.4369

                     10                     11                     12
                      A                      A                      A
 Frequencies --    448.5165               483.1784               689.2347
 Red. masses --      4.0392                 2.7578                 4.5400
 Frc consts  --      0.4787                 0.3793                 1.2707
 IR Inten    --     14.6826                 5.4308                 4.2826

                     13                     14                     15
                      A                      A                      A
 Frequencies --    801.1891               842.3014               927.9493
 Red. masses --      2.8216                 1.8184                 1.2104
 Frc consts  --      1.0671                 0.7601                 0.6141
 IR Inten    --     10.4406                 0.4432                 6.3391

                     16                     17                     18
                      A                      A                      A
 Frequencies --    942.0464               942.9535               955.1916
 Red. masses --      2.2799                 1.3004                 1.1310
 Frc consts  --      1.1921                 0.6812                 0.6080
 IR Inten    --     19.9471                18.9134                38.5590

                     19                     20                     21
                      A                      A                      A
 Frequencies --   1125.8577              1160.3603              1161.0606
 Red. masses --      1.9134                 2.2194                 2.4167
 Frc consts  --      1.4290                 1.7606                 1.9195
 IR Inten    --     85.4799                15.6289               131.9342

                     22                     23                     24
                      A                      A                      A
 Frequencies --   1192.4433              1229.6408              1297.9077
 Red. masses --      1.9439                 3.7018                 2.0715
 Frc consts  --      1.6285                 3.2978                 2.0560
 IR Inten    --      6.2395               302.1011                68.9552

                     25                     26                     27
                      A                      A                      A
 Frequencies --   1352.8470              1378.8176              1398.2595
 Red. masses --      1.1973                 1.2791                 1.2022
 Frc consts  --      1.2911                 1.4328                 1.3848
 IR Inten    --     33.3828                 1.1220                 1.5622

                     28                     29                     30
                      A                      A                      A
 Frequencies --   1404.7453              1421.7893              1434.2820
 Red. masses --      1.3619                 1.2393                 1.2430
 Frc consts  --      1.5834                 1.4760                 1.5065
 IR Inten    --     21.9832                25.4366                32.3785

                     31                     32                     33
                      A                      A                      A
 Frequencies --   1488.2327              1491.2377              1500.0318
 Red. masses --      1.0466                 1.0652                 1.0581
 Frc consts  --      1.3658                 1.3956                 1.4028
 IR Inten    --      0.1265                 0.0025                 7.6150

                     34                     35                     36
                      A                      A                      A
 Frequencies --   1511.0198              1774.5991              3075.6890
 Red. masses --      1.0633                 5.8756                 1.0366
 Frc consts  --      1.4304                10.9020                 5.7778
 IR Inten    --      4.4002                 1.2812                14.0651

                     37                     38                     39
                      A                      A                      A
 Frequencies --   3078.7120              3085.9129              3144.4165
 Red. masses --      1.0386                 1.0846                 1.1014
 Frc consts  --      5.8003                 6.0851                 6.4160
 IR Inten    --      7.2079                17.5898                 6.2273

                     40                     41                     42
                      A                      A                      A
 Frequencies --   3146.5554              3163.6253              3166.6569
 Red. masses --      1.1018                 1.1011                 1.1002
 Frc consts  --      6.4274                 6.4928                 6.5004
 IR Inten    --     24.6265                 2.3225                35.6652

                     43                     44                     45
                      A                      A                      A
 Frequencies --   3172.8054              3282.0537              3872.0366
 Red. masses --      1.0902                 1.0921                 1.0656
 Frc consts  --      6.4660                 6.9310                 9.4126
 IR Inten    --     23.3460                 9.3871                46.6132

 - Thermochemistry -
 -------------------
 Temperature   298.150 Kelvin.  Pressure   1.00000 Atm.
 Atom     1 has atomic number  8 and mass  15.99491

 Molecular mass:   102.06808 amu.
 Principal axes and moments of inertia in atomic units:
                           1         2         3
     Eigenvalues --   407.229941206.143251217.93955
           X            0.99945   0.03317  -0.00001
           Y           -0.00007   0.00231   1.00000
           Z           -0.03317   0.99945  -0.00231
 This molecule is an asymmetric top.
 Rotational symmetry number  1.
 Rotational temperatures (Kelvin)      0.21269     0.07181     0.07112
 Rotational constants (GHZ):           4.43175     1.49629     1.48180
 Zero-point vibrational energy     386497.1 (Joules/Mol)
                                   92.37501 (Kcal/Mol)
 Warning -- explicit consideration of  11 degrees of freedom as
           vibrations may cause significant error
 Vibrational temperatures:    100.26   150.67   261.68   291.30   320.30
          (Kelvin)            362.26   442.42   504.77   549.09   645.32
                              695.19   991.66  1152.73  1211.88  1335.11
                             1355.39  1356.70  1374.31  1619.86  1669.50
                             1670.51  1715.66  1769.18  1867.40  1946.45
                             1983.81  2011.78  2021.12  2045.64  2063.61
                             2141.23  2145.56  2158.21  2174.02  2553.25
                             4425.23  4429.58  4439.94  4524.11  4527.19
                             4551.75  4556.11  4564.96  4722.14  5571.00

 Zero-point correction=                           0.147209 (Hartree/Particle)
 Thermal correction to Energy=                    0.155937
 Thermal correction to Enthalpy=                  0.156881
 Thermal correction to Gibbs Free Energy=         0.114152
 Sum of electronic and zero-point Energies=           -346.788057
 Sum of electronic and thermal Energies=              -346.779329
 Sum of electronic and thermal Enthalpies=            -346.778385
 Sum of electronic and thermal Free Energies=         -346.821114

                     E (Thermal)             CV                S
                      KCal/Mol        Cal/Mol-Kelvin    Cal/Mol-Kelvin
 Total                   97.852             30.640             89.931
 Electronic               0.000              0.000              0.000
 Translational            0.889              2.981             39.779
 Rotational               0.889              2.981             27.883
 Vibrational             96.075             24.678             22.269
 Vibration     1          0.598              1.969              4.162
 Vibration     2          0.605              1.945              3.365
 Vibration     3          0.630              1.864              2.309
 Vibration     4          0.639              1.836              2.111
 Vibration     5          0.648              1.807              1.938
 Vibration     6          0.664              1.760              1.718
 Vibration     7          0.697              1.659              1.376
 Vibration     8          0.728              1.574              1.162
 Vibration     9          0.751              1.509              1.033
 Vibration    10          0.808              1.364              0.800
 Vibration    11          0.839              1.287              0.702

                           ! Non-Optimized Parameters !
 Normal termination of Gaussian 16 at Thu Sep 26 21:38:34 2019.
