 Gaussian 16, Revision A.03,
 Gaussian 16:  EM64L-G16RevA.03 25-Dec-2016

 ----------------------------------------------------------------------
 #p m062x/cc-pVTZ opt=(calcfc,maxcycles=900,Tight) freq IOP(7/33=1,2/16
 =3) scf=(maxcycle=900)
 ----------------------------------------------------------------------

 ------------------------------
 Gaussian input prepared by ASE
 ------------------------------
 Symbolic Z-matrix:
 Charge =  0 Multiplicity = 1

 SCF Done:  E(RM062X) =  -346.910750484     A.U. after   13 cycles
 SCF Done:  E(RM062X) =  -346.915254213     A.U. after   14 cycles
 SCF Done:  E(RM062X) =  -346.927348210     A.U. after   14 cycles
 SCF Done:  E(RM062X) =  -346.881880785     A.U. after   13 cycles
 SCF Done:  E(RM062X) =  -346.931447329     A.U. after   13 cycles
 SCF Done:  E(RM062X) =  -346.930609817     A.U. after   14 cycles
 SCF Done:  E(RM062X) =  -346.895416606     A.U. after   13 cycles
 SCF Done:  E(RM062X) =  -346.902668855     A.U. after   13 cycles
 SCF Done:  E(RM062X) =  -346.931906976     A.U. after   10 cycles
 SCF Done:  E(RM062X) =  -346.932709766     A.U. after   11 cycles
 SCF Done:  E(RM062X) =  -346.934283999     A.U. after    8 cycles
 SCF Done:  E(RM062X) =  -346.934286483     A.U. after    8 cycles
 SCF Done:  E(RM062X) =  -346.934287896     A.U. after    8 cycles
 SCF Done:  E(RM062X) =  -346.934288085     A.U. after    7 cycles
 SCF Done:  E(RM062X) =  -346.934288059     A.U. after    6 cycles
 SCF Done:  E(RM062X) =  -346.934288054     A.U. after    5 cycles
 SCF Done:  E(RM062X) =  -346.934288048     A.U. after    4 cycles
 SCF Done:  E(RM062X) =  -346.934288061     A.U. after    6 cycles
 SCF Done:  E(RM062X) =  -346.934288047     A.U. after    5 cycles
 Optimization completed.
    -- Stationary point found.
 Normal termination of Gaussian 16 at Thu Sep 26 21:44:30 2019.

 ----------------------------------------------------------------------
 #P Geom=AllCheck Guess=TCheck SCRF=Check Test GenChk RM062X/CC-pVTZ Fr
 eq
 ----------------------------------------------------------------------

 Structure from the checkpoint file:  "/scratch/harms.n/gauss_scrdir/Gau-12657.chk"
 ------------------------------
 Gaussian input prepared by ASE
 ------------------------------
 Charge =  0 Multiplicity = 1

                         Standard orientation:
 ---------------------------------------------------------------------
 Center     Atomic      Atomic             Coordinates (Angstroms)
 Number     Number       Type             X           Y           Z
 ---------------------------------------------------------------------
      1          8           0        0.429205   -0.287554   -1.181945
      2          8           0       -2.830618    0.003944    0.410726
      3          6           0        1.484955   -0.058102   -0.248019
      4          6           0        1.525501   -1.103085    0.857454
      5          6           0        1.516553    1.375738    0.260713
      6          6           0       -0.875480   -0.192486   -0.838916
      7          6           0       -1.453384    0.086624    0.323564
      8          1           0        2.367796   -0.204365   -0.871106
      9          1           0        0.727070   -0.978596    1.585018
     10          1           0        1.447881   -2.101362    0.429505
     11          1           0        2.476317   -1.026078    1.384966
     12          1           0        0.731632    1.583219    0.984198
     13          1           0        1.410618    2.069551   -0.572027
     14          1           0        2.475430    1.560775    0.744889
     15          1           0       -1.514959   -0.410430   -1.684926
     16          1           0       -0.929353    0.310558    1.240958
     17          1           0       -3.169990    0.813481    0.799503
 ---------------------------------------------------------------------

 SCF Done:  E(RM062X) =  -346.934288047     A.U. after    1 cycles

 The electronic state is 1-A.
 Alpha  occ. eigenvalues --  -19.64488 -19.63299 -10.59940 -10.58110 -10.57320
 Alpha  occ. eigenvalues --  -10.53149 -10.52982  -1.18257  -1.15931  -0.89677
 Alpha  occ. eigenvalues --   -0.83640  -0.79182  -0.72094  -0.64021  -0.60999
 Alpha  occ. eigenvalues --   -0.56915  -0.54918  -0.52560  -0.50371  -0.48366
 Alpha  occ. eigenvalues --   -0.47795  -0.46446  -0.43833  -0.42488  -0.39693
 Alpha  occ. eigenvalues --   -0.38870  -0.37766  -0.26700
 Alpha virt. eigenvalues --    0.06276   0.06730   0.07406   0.09872   0.11836
 Alpha virt. eigenvalues --    0.12201   0.12852   0.14078   0.16446   0.17235
 Alpha virt. eigenvalues --    0.17856   0.19037   0.22798   0.23113   0.24217

 Mulliken charges:
               1
     1  O   -0.242902
     2  O   -0.351668
     3  C   -0.013715
     4  C   -0.375205
     5  C   -0.380622
     6  C   -0.018865
     7  C   -0.091434
     8  H    0.153094
     9  H    0.134409
    10  H    0.139573
    11  H    0.121646
    12  H    0.127342
    13  H    0.140411
    14  H    0.124358
    15  H    0.164004
    16  H    0.120531
    17  H    0.249042
 Sum of Mulliken charges =  -0.00000

 Dipole moment (field-independent basis, Debye):
    X=              1.1662    Y=              1.5178    Z=              1.5215  Tot=              2.4451
 Quadrupole moment (field-independent basis, Debye-Ang):
   XX=            -41.9821   YY=            -43.5074   ZZ=            -43.6193
   XY=             -4.2932   XZ=             -0.6422   YZ=              1.4983

  Exact polarizability:  78.318  -1.542  58.558  -2.708   2.288  63.409
 Approx polarizability:  84.994  -2.273  68.384  -7.302   5.076  82.752

                      1                      2                      3
                      A                      A                      A
 Frequencies --     73.5238               119.2200               180.1735
 Red. masses --      2.0239                 1.5728                 2.2835
 Frc consts  --      0.0064                 0.0132                 0.0437
 IR Inten    --      0.8096                 9.7592                20.7061

                      4                      5                      6
                      A                      A                      A
 Frequencies --    199.0387               208.1686               243.1334
 Red. masses --      1.0479                 1.4305                 1.4846
 Frc consts  --      0.0245                 0.0365                 0.0517
 IR Inten    --     15.7415                48.5359                40.7170

                      7                      8                      9
                      A                      A                      A
 Frequencies --    307.3984               327.3802               382.2385
 Red. masses --      3.1109                 3.6908                 2.6361
 Frc consts  --      0.1732                 0.2331                 0.2269
 IR Inten    --      3.5870                 7.1389                 4.6959

                     10                     11                     12
                      A                      A                      A
 Frequencies --    453.5206               484.8400               692.5631
 Red. masses --      3.7885                 3.1728                 4.6562
 Frc consts  --      0.4591                 0.4394                 1.3158
 IR Inten    --      8.4079                 2.9175                 5.7205

                     13                     14                     15
                      A                      A                      A
 Frequencies --    800.7589               838.0620               928.2739
 Red. masses --      2.8249                 1.6457                 1.2212
 Frc consts  --      1.0672                 0.6810                 0.6200
 IR Inten    --      6.5623                14.7771                 1.3115

                     16                     17                     18
                      A                      A                      A
 Frequencies --    942.9943               947.1218               973.9187
 Red. masses --      2.2592                 1.3536                 1.1377
 Frc consts  --      1.1837                 0.7154                 0.6358
 IR Inten    --     13.5794                 1.0026                41.1629

                     19                     20                     21
                      A                      A                      A
 Frequencies --   1147.0219              1162.3334              1180.3989
 Red. masses --      1.9941                 2.2131                 5.1255
 Frc consts  --      1.5457                 1.7616                 4.2077
 IR Inten    --     36.2053                15.3875               134.0898

                     22                     23                     24
                      A                      A                      A
 Frequencies --   1193.5576              1209.2904              1291.4981
 Red. masses --      1.9324                 1.7816                 2.1474
 Frc consts  --      1.6219                 1.5351                 2.1103
 IR Inten    --      7.5661               335.3080                44.2950

                     25                     26                     27
                      A                      A                      A
 Frequencies --   1345.9526              1362.1665              1379.6805
 Red. masses --      1.2602                 1.2058                 1.2826
 Frc consts  --      1.3451                 1.3182                 1.4385
 IR Inten    --     12.9315                27.5130                 1.1978

                     28                     29                     30
                      A                      A                      A
 Frequencies --   1405.1535              1419.7778              1432.4820
 Red. masses --      1.3612                 1.2489                 1.2448
 Frc consts  --      1.5835                 1.4833                 1.5050
 IR Inten    --     21.9069                14.2374                17.4976

                     31                     32                     33
                      A                      A                      A
 Frequencies --   1487.3702              1491.0739              1498.7053
 Red. masses --      1.0492                 1.0626                 1.0557
 Frc consts  --      1.3676                 1.3919                 1.3971
 IR Inten    --      0.1450                 0.0321                 7.7978

                     34                     35                     36
                      A                      A                      A
 Frequencies --   1510.6867              1772.4591              3075.6608
 Red. masses --      1.0628                 5.6016                 1.0366
 Frc consts  --      1.4291                10.3684                 5.7774
 IR Inten    --      3.3995                22.1788                13.8340

                     37                     38                     39
                      A                      A                      A
 Frequencies --   3078.7652              3085.8526              3144.6796
 Red. masses --      1.0385                 1.0847                 1.1013
 Frc consts  --      5.7999                 6.0857                 6.4166
 IR Inten    --      7.5013                16.8503                 6.2247

                     40                     41                     42
                      A                      A                      A
 Frequencies --   3146.8305              3163.2164              3166.7608
 Red. masses --      1.1018                 1.1011                 1.1006
 Frc consts  --      6.4282                 6.4915                 6.5027
 IR Inten    --     24.8428                 9.7683                32.0932

                     43                     44                     45
                      A                      A                      A
 Frequencies --   3206.9463              3231.5616              3876.5084
 Red. masses --      1.0908                 1.0913                 1.0665
 Frc consts  --      6.6095                 6.7146                 9.4428
 IR Inten    --      9.6410                19.2837                68.6899

 - Thermochemistry -
 -------------------
 Temperature   298.150 Kelvin.  Pressure   1.00000 Atm.
 Atom     1 has atomic number  8 and mass  15.99491

 Molecular mass:   102.06808 amu.
 Principal axes and moments of inertia in atomic units:
                           1         2         3
     Eigenvalues --   404.122101213.080641218.46630
           X            0.99984   0.01573  -0.00871
           Y            0.00428   0.26212   0.96503
           Z           -0.01747   0.96491  -0.26201
 This molecule is an asymmetric top.
 Rotational symmetry number  1.
 Rotational temperatures (Kelvin)      0.21433     0.07140     0.07108
 Rotational constants (GHZ):           4.46583     1.48773     1.48116
 Zero-point vibrational energy     386206.7 (Joules/Mol)
                                   92.30562 (Kcal/Mol)
 Warning -- explicit consideration of  11 degrees of freedom as
           vibrations may cause significant error
 Vibrational temperatures:    105.78   171.53   259.23   286.37   299.51
          (Kelvin)            349.81   442.28   471.03   549.96   652.52
                              697.58   996.44  1152.11  1205.78  1335.58
                             1356.76  1362.70  1401.25  1650.31  1672.34
                             1698.33  1717.26  1739.90  1858.18  1936.53
                             1959.85  1985.05  2021.70  2042.74  2061.02
                             2139.99  2145.32  2156.30  2173.54  2550.17
                             4425.19  4429.66  4439.85  4524.49  4527.59
                             4551.16  4556.26  4614.08  4649.50  5577.43

 Zero-point correction=                           0.147098 (Hartree/Particle)
 Thermal correction to Energy=                    0.155850
 Thermal correction to Enthalpy=                  0.156794
 Thermal correction to Gibbs Free Energy=         0.114088
 Sum of electronic and zero-point Energies=           -346.787190
 Sum of electronic and thermal Energies=              -346.778438
 Sum of electronic and thermal Enthalpies=            -346.777494
 Sum of electronic and thermal Free Energies=         -346.820200

                     E (Thermal)             CV                S
                      KCal/Mol        Cal/Mol-Kelvin    Cal/Mol-Kelvin
 Total                   97.797             30.673             89.882
 Electronic               0.000              0.000              0.000
 Translational            0.889              2.981             39.779
 Rotational               0.889              2.981             27.882
 Vibrational             96.020             24.712             22.221
 Vibration     1          0.599              1.966              4.057
 Vibration     2          0.609              1.933              3.113
 Vibration     3          0.629              1.867              2.327
 Vibration     4          0.637              1.841              2.142
 Vibration     5          0.641              1.828              2.060
 Vibration     6          0.659              1.774              1.780
 Vibration     7          0.697              1.660              1.376
 Vibration     8          0.711              1.621              1.273
 Vibration     9          0.752              1.508              1.030
 Vibration    10          0.812              1.353              0.785
 Vibration    11          0.841              1.284              0.697

 Optimization completed.
    -- Stationary point found.
 Normal termination of Gaussian 16 at Thu Sep 26 23:16:43 2019.
