 Gaussian 16, Revision A.03,
 Gaussian 16:  EM64L-G16RevA.03 25-Dec-2016

 ----------------------------------------------------------------------
 #p m062x/cc-pVTZ opt=(calcfc,maxcycles=900,Tight) freq IOP(7/33=1,2/16
 =3) scf=(maxcycle=900)
 ----------------------------------------------------------------------

 ------------------------------
 Gaussian input prepared by ASE
 ------------------------------
 Symbolic Z-matrix:
 Charge =  0 Multiplicity = 1

 SCF Done:  E(RM062X) =  -346.926568419     A.U. after   13 cycles
 SCF Done:  E(RM062X) =  -346.939428074     A.U. after   12 cycles
 SCF Done:  E(RM062X) =  -346.938810662     A.U. after   12 cycles
 SCF Done:  E(RM062X) =  -346.940626433     A.U. after   11 cycles
 SCF Done:  E(RM062X) =  -346.940879664     A.U. after   10 cycles
 SCF Done:  E(RM062X) =  -346.940985655     A.U. after   10 cycles
 SCF Done:  E(RM062X) =  -346.941026169     A.U. after   10 cycles
 SCF Done:  E(RM062X) =  -346.941084276     A.U. after   10 cycles
 SCF Done:  E(RM062X) =  -346.941159112     A.U. after   11 cycles
 SCF Done:  E(RM062X) =  -346.941296967     A.U. after   12 cycles
 SCF Done:  E(RM062X) =  -346.941419570     A.U. after   10 cycles
 SCF Done:  E(RM062X) =  -346.941427870     A.U. after   10 cycles
 SCF Done:  E(RM062X) =  -346.941427815     A.U. after    9 cycles
 SCF Done:  E(RM062X) =  -346.941428119     A.U. after    8 cycles
 SCF Done:  E(RM062X) =  -346.941428121     A.U. after    6 cycles
 SCF Done:  E(RM062X) =  -346.941428124     A.U. after    5 cycles
 SCF Done:  E(RM062X) =  -346.941428123     A.U. after    4 cycles
 SCF Done:  E(RM062X) =  -346.941428124     A.U. after    3 cycles
 SCF Done:  E(RM062X) =  -346.941428124     A.U. after    5 cycles
 Optimization completed on the basis of negligible forces.
    -- Stationary point found.
 Normal termination of Gaussian 16 at Thu Sep 26 19:39:22 2019.

 ----------------------------------------------------------------------
 #P Geom=AllCheck Guess=TCheck SCRF=Check Test GenChk RM062X/CC-pVTZ Fr
 eq
 ----------------------------------------------------------------------

 Structure from the checkpoint file:  "/scratch/harms.n/gauss_scrdir/Gau-15397.chk"
 ------------------------------
 Gaussian input prepared by ASE
 ------------------------------
 Charge =  0 Multiplicity = 1

                         Standard orientation:
 ---------------------------------------------------------------------
 Center     Atomic      Atomic             Coordinates (Angstroms)
 Number     Number       Type             X           Y           Z
 ---------------------------------------------------------------------
      1          8           0       -0.088285    0.546378    0.183580
      2          8           0        2.498526    0.350961   -0.846371
      3          6           0       -1.370823   -0.065268    0.309556
      4          6           0       -1.416171   -1.367467   -0.470620
      5          6           0       -2.378691    0.945986   -0.191928
      6          6           0        0.913782   -0.094801    0.840020
      7          6           0        2.149918   -0.166378    0.367487
      8          1           0       -1.549692   -0.268716    1.373363
      9          1           0       -1.228931   -1.167335   -1.526033
     10          1           0       -0.655552   -2.060941   -0.112751
     11          1           0       -2.392638   -1.840954   -0.369265
     12          1           0       -2.179995    1.171618   -1.239721
     13          1           0       -2.308853    1.869726    0.379506
     14          1           0       -3.390201    0.550803   -0.105196
     15          1           0        0.677822   -0.522345    1.808782
     16          1           0        2.924883   -0.628879    0.963325
     17          1           0        3.433136    0.205884   -0.996769
 ---------------------------------------------------------------------

 SCF Done:  E(RM062X) =  -346.941428124     A.U. after    1 cycles

 The electronic state is 1-A.
 Alpha  occ. eigenvalues --  -19.64156 -19.63265 -10.59039 -10.57932 -10.57059
 Alpha  occ. eigenvalues --  -10.52158 -10.52149  -1.18122  -1.16350  -0.89294
 Alpha  occ. eigenvalues --   -0.83075  -0.78234  -0.68644  -0.66274  -0.61659
 Alpha  occ. eigenvalues --   -0.56619  -0.54243  -0.52589  -0.50282  -0.46562
 Alpha  occ. eigenvalues --   -0.45749  -0.45020  -0.43094  -0.42781  -0.41845
 Alpha  occ. eigenvalues --   -0.38989  -0.36568  -0.26057
 Alpha virt. eigenvalues --    0.05736   0.07899   0.08489   0.10043   0.11603
 Alpha virt. eigenvalues --    0.12166   0.12999   0.14827   0.16414   0.17235
 Alpha virt. eigenvalues --    0.18015   0.18746   0.21254   0.23613   0.25900

 Mulliken charges:
               1
     1  O   -0.245595
     2  O   -0.309206
     3  C    0.006433
     4  C   -0.346215
     5  C   -0.340863
     6  C   -0.074128
     7  C   -0.014190
     8  H    0.122392
     9  H    0.130556
    10  H    0.123417
    11  H    0.117810
    12  H    0.125228
    13  H    0.123870
    14  H    0.104458
    15  H    0.127286
    16  H    0.099486
    17  H    0.249260
 Sum of Mulliken charges =  -0.00000

 Dipole moment (field-independent basis, Debye):
    X=              0.7035    Y=             -1.5188    Z=              0.8665  Tot=              1.8848
 Quadrupole moment (field-independent basis, Debye-Ang):
   XX=            -31.1061   YY=            -45.9193   ZZ=            -43.1236
   XY=             -1.7296   XZ=             -0.6406   YZ=             -0.6100

  Exact polarizability:  89.922  -1.937  58.048  -2.963  -1.700  60.925
 Approx polarizability:  93.436  -1.212  68.255  -6.400  -3.107  75.290

                      1                      2                      3
                      A                      A                      A
 Frequencies --     31.2467                87.1087               140.2889
 Red. masses --      3.9047                 3.2349                 1.1639
 Frc consts  --      0.0022                 0.0145                 0.0135
 IR Inten    --      1.3735                 6.1011               106.4565

                      4                      5                      6
                      A                      A                      A
 Frequencies --    170.5955               208.6260               246.5874
 Red. masses --      3.2209                 1.0398                 1.1765
 Frc consts  --      0.0552                 0.0267                 0.0421
 IR Inten    --      0.5909                 0.0629                 0.1754

                      7                      8                      9
                      A                      A                      A
 Frequencies --    299.5123               359.0332               427.4789
 Red. masses --      3.2523                 2.3122                 2.9279
 Frc consts  --      0.1719                 0.1756                 0.3152
 IR Inten    --      0.9704                 0.2732                 5.2891

                     10                     11                     12
                      A                      A                      A
 Frequencies --    487.9962               569.7861               718.3858
 Red. masses --      2.3723                 3.4081                 3.4288
 Frc consts  --      0.3329                 0.6519                 1.0426
 IR Inten    --      1.8694                 2.9025                19.0401

                     13                     14                     15
                      A                      A                      A
 Frequencies --    767.4454               872.2566               901.5618
 Red. masses --      1.4196                 2.5003                 1.2925
 Frc consts  --      0.4926                 1.1208                 0.6190
 IR Inten    --     49.3923                 9.2694                 6.4135

                     16                     17                     18
                      A                      A                      A
 Frequencies --    935.7427               951.2070               971.0488
 Red. masses --      1.1724                 1.4670                 2.3486
 Frc consts  --      0.6049                 0.7820                 1.3048
 IR Inten    --      0.4017                 3.0140                22.7604

                     19                     20                     21
                      A                      A                      A
 Frequencies --   1082.7995              1160.6159              1177.7203
 Red. masses --      2.8264                 2.0853                 2.5015
 Frc consts  --      1.9524                 1.6550                 2.0443
 IR Inten    --     20.8545                34.8182               212.5475

                     22                     23                     24
                      A                      A                      A
 Frequencies --   1185.2271              1214.9037              1268.4416
 Red. masses --      2.1028                 2.0481                 1.2551
 Frc consts  --      1.7404                 1.7811                 1.1898
 IR Inten    --     59.2882                88.8862                73.7524

                     25                     26                     27
                      A                      A                      A
 Frequencies --   1321.7525              1373.1651              1380.6277
 Red. masses --      1.3948                 1.2872                 1.2479
 Frc consts  --      1.4357                 1.4300                 1.4014
 IR Inten    --     83.7739                 1.8112                67.1419

                     28                     29                     30
                      A                      A                      A
 Frequencies --   1408.3913              1419.6432              1449.5947
 Red. masses --      1.4548                 1.3267                 1.4915
 Frc consts  --      1.7002                 1.5754                 1.8465
 IR Inten    --     26.1257                42.0242                51.4362

                     31                     32                     33
                      A                      A                      A
 Frequencies --   1482.0730              1489.8844              1495.0443
 Red. masses --      1.0573                 1.0505                 1.0555
 Frc consts  --      1.3683                 1.3739                 1.3900
 IR Inten    --      0.7406                 0.0454                 5.4177

                     34                     35                     36
                      A                      A                      A
 Frequencies --   1513.8650              1813.9696              3009.1414
 Red. masses --      1.0615                 6.1206                 1.0836
 Frc consts  --      1.4333                11.8660                 5.7809
 IR Inten    --      7.6557                28.7323                40.2827

                     37                     38                     39
                      A                      A                      A
 Frequencies --   3063.4600              3070.6889              3139.5788
 Red. masses --      1.0346                 1.0350                 1.1031
 Frc consts  --      5.7205                 5.7501                 6.4060
 IR Inten    --     11.2151                12.8325                 6.1694

                     40                     41                     42
                      A                      A                      A
 Frequencies --   3141.9047              3147.2705              3153.6830
 Red. masses --      1.1024                 1.1021                 1.1030
 Frc consts  --      6.4118                 6.4322                 6.4636
 IR Inten    --     14.4385                32.4168                18.0160

                     43                     44                     45
                      A                      A                      A
 Frequencies --   3173.0691              3218.5824              3929.3379
 Red. masses --      1.0871                 1.0974                 1.0669
 Frc consts  --      6.4491                 6.6979                 9.7058
 IR Inten    --      9.3553                14.5774               118.4367

 - Thermochemistry -
 -------------------
 Temperature   298.150 Kelvin.  Pressure   1.00000 Atm.
 Atom     1 has atomic number  8 and mass  15.99491

 Molecular mass:   102.06808 amu.
 Principal axes and moments of inertia in atomic units:
                           1         2         3
     Eigenvalues --   332.202231321.617801385.08153
           X            0.99989  -0.00855   0.01186
           Y            0.00873   0.99985  -0.01487
           Z           -0.01173   0.01497   0.99982
 This molecule is an asymmetric top.
 Rotational symmetry number  1.
 Rotational temperatures (Kelvin)      0.26073     0.06554     0.06253
 Rotational constants (GHZ):           5.43266     1.36555     1.30299
 Zero-point vibrational energy     385379.0 (Joules/Mol)
                                   92.10780 (Kcal/Mol)
 Warning -- explicit consideration of  11 degrees of freedom as
           vibrations may cause significant error
 Vibrational temperatures:     44.96   125.33   201.84   245.45   300.17
          (Kelvin)            354.78   430.93   516.57   615.05   702.12
                              819.80  1033.60  1104.18  1254.98  1297.15
                             1346.33  1368.57  1397.12  1557.91  1669.87
                             1694.48  1705.28  1747.98  1825.00  1901.71
                             1975.68  1986.42  2026.36  2042.55  2085.64
                             2132.37  2143.61  2151.04  2178.11  2609.90
                             4329.48  4407.64  4418.04  4517.15  4520.50
                             4528.22  4537.45  4565.34  4630.82  5653.44

 Zero-point correction=                           0.146783 (Hartree/Particle)
 Thermal correction to Energy=                    0.155643
 Thermal correction to Enthalpy=                  0.156587
 Thermal correction to Gibbs Free Energy=         0.112689
 Sum of electronic and zero-point Energies=           -346.794645
 Sum of electronic and thermal Energies=              -346.785785
 Sum of electronic and thermal Enthalpies=            -346.784841
 Sum of electronic and thermal Free Energies=         -346.828739

                     E (Thermal)             CV                S
                      KCal/Mol        Cal/Mol-Kelvin    Cal/Mol-Kelvin
 Total                   97.667             30.449             92.391
 Electronic               0.000              0.000              0.000
 Translational            0.889              2.981             39.779
 Rotational               0.889              2.981             27.899
 Vibrational             95.890             24.487             24.712
 Vibration     1          0.594              1.983              5.749
 Vibration     2          0.601              1.958              3.724
 Vibration     3          0.615              1.913              2.800
 Vibration     4          0.626              1.879              2.429
 Vibration     5          0.642              1.828              2.056
 Vibration     6          0.661              1.768              1.755
 Vibration     7          0.692              1.675              1.420
 Vibration     8          0.734              1.557              1.126
 Vibration     9          0.789              1.410              0.867
 Vibration    10          0.844              1.277              0.689
 Vibration    11          0.926              1.097              0.505

                           ! Non-Optimized Parameters !
 Normal termination of Gaussian 16 at Thu Sep 26 21:52:25 2019.
