 Gaussian 16, Revision A.03,
 Gaussian 16:  EM64L-G16RevA.03 25-Dec-2016

 ----------------------------------------------------------------------
 #p m062x/cc-pVTZ opt=(calcfc,maxcycles=900,Tight) freq IOP(7/33=1,2/16
 =3) scf=(maxcycle=900)
 ----------------------------------------------------------------------

 ------------------------------
 Gaussian input prepared by ASE
 ------------------------------
 Symbolic Z-matrix:
 Charge =  0 Multiplicity = 1

 SCF Done:  E(RM062X) =  -346.929857091     A.U. after   13 cycles
 SCF Done:  E(RM062X) =  -346.943012153     A.U. after   12 cycles
 SCF Done:  E(RM062X) =  -346.947401115     A.U. after   13 cycles
 SCF Done:  E(RM062X) =  -346.948913361     A.U. after   12 cycles
 SCF Done:  E(RM062X) =  -346.949469535     A.U. after   11 cycles
 SCF Done:  E(RM062X) =  -346.949521047     A.U. after    9 cycles
 SCF Done:  E(RM062X) =  -346.949532310     A.U. after   10 cycles
 SCF Done:  E(RM062X) =  -346.949534656     A.U. after    8 cycles
 SCF Done:  E(RM062X) =  -346.949535397     A.U. after    8 cycles
 SCF Done:  E(RM062X) =  -346.949535496     A.U. after    6 cycles
 SCF Done:  E(RM062X) =  -346.949535515     A.U. after    5 cycles
 SCF Done:  E(RM062X) =  -346.949535503     A.U. after    5 cycles
 SCF Done:  E(RM062X) =  -346.949535504     A.U. after    3 cycles
 SCF Done:  E(RM062X) =  -346.949535502     A.U. after    3 cycles
 SCF Done:  E(RM062X) =  -346.949535503     A.U. after    3 cycles
 Optimization completed.
    -- Stationary point found.
 Normal termination of Gaussian 16 at Thu Sep 26 14:00:00 2019.

 ----------------------------------------------------------------------
 #P Geom=AllCheck Guess=TCheck SCRF=Check Test GenChk RM062X/CC-pVTZ Fr
 eq
 ----------------------------------------------------------------------

 Structure from the checkpoint file:  "/scratch/harms.n/gauss_scrdir/Gau-1794.chk"
 ------------------------------
 Gaussian input prepared by ASE
 ------------------------------
 Charge =  0 Multiplicity = 1

                         Standard orientation:
 ---------------------------------------------------------------------
 Center     Atomic      Atomic             Coordinates (Angstroms)
 Number     Number       Type             X           Y           Z
 ---------------------------------------------------------------------
      1          8           0       -0.078768   -0.681121   -0.101364
      2          8           0        2.346366    0.325054   -0.925883
      3          6           0       -1.295934   -0.066447    0.336553
      4          6           0       -2.393948   -0.600759   -0.556710
      5          6           0       -1.174579    1.445393    0.275521
      6          6           0        0.969196   -0.562857    0.778025
      7          6           0        2.133188   -0.099158    0.344551
      8          1           0       -1.475672   -0.378917    1.372023
      9          1           0       -2.197116   -0.319517   -1.591731
     10          1           0       -2.441748   -1.686386   -0.496333
     11          1           0       -3.357823   -0.186711   -0.263142
     12          1           0       -1.019737    1.762643   -0.756975
     13          1           0       -0.332226    1.789976    0.874486
     14          1           0       -2.082419    1.918159    0.649645
     15          1           0        0.811048   -0.896540    1.795530
     16          1           0        3.006397   -0.044718    0.975929
     17          1           0        1.520973    0.193505   -1.409095
 ---------------------------------------------------------------------

 SCF Done:  E(RM062X) =  -346.949535503     A.U. after    1 cycles

 The electronic state is 1-A.
 Alpha  occ. eigenvalues --  -19.64449 -19.64208 -10.59928 -10.58483 -10.57298
 Alpha  occ. eigenvalues --  -10.53065 -10.52986  -1.19078  -1.16458  -0.89951
 Alpha  occ. eigenvalues --   -0.83090  -0.79072  -0.70572  -0.66670  -0.61272
 Alpha  occ. eigenvalues --   -0.58351  -0.53927  -0.52658  -0.50918  -0.46962
 Alpha  occ. eigenvalues --   -0.46169  -0.45783  -0.44998  -0.43892  -0.42445
 Alpha  occ. eigenvalues --   -0.39942  -0.36880  -0.27172
 Alpha virt. eigenvalues --    0.06206   0.07943   0.08233   0.10142   0.11279
 Alpha virt. eigenvalues --    0.11472   0.12453   0.14142   0.15717   0.16436
 Alpha virt. eigenvalues --    0.17801   0.18389   0.20272   0.22690   0.24780

 Mulliken charges:
               1
     1  O   -0.297769
     2  O   -0.350756
     3  C    0.022788
     4  C   -0.337690
     5  C   -0.371525
     6  C   -0.097202
     7  C    0.011917
     8  H    0.129571
     9  H    0.119402
    10  H    0.126986
    11  H    0.109560
    12  H    0.125992
    13  H    0.139478
    14  H    0.126751
    15  H    0.122637
    16  H    0.153536
    17  H    0.266325
 Sum of Mulliken charges =  -0.00000

 Dipole moment (field-independent basis, Debye):
    X=             -1.8741    Y=              0.3531    Z=              1.0681  Tot=              2.1858
 Quadrupole moment (field-independent basis, Debye-Ang):
   XX=            -44.5986   YY=            -45.9388   ZZ=            -41.3017
   XY=             -0.9259   XZ=              2.6561   YZ=             -0.7822

  Exact polarizability:  83.837   3.021  58.266  -0.374  -2.598  61.811
 Approx polarizability:  89.838   5.123  69.372  -4.053  -3.954  77.373

                      1                      2                      3
                      A                      A                      A
 Frequencies --     31.2315                79.8465               191.8130
 Red. masses --      3.8033                 3.4960                 2.7330
 Frc consts  --      0.0022                 0.0131                 0.0592
 IR Inten    --      0.6819                 0.4955                 2.1515

                      4                      5                      6
                      A                      A                      A
 Frequencies --    212.6211               244.5649               303.9427
 Red. masses --      1.0978                 1.1646                 3.0880
 Frc consts  --      0.0292                 0.0410                 0.1681
 IR Inten    --      0.3973                 0.8337                 5.9608

                      7                      8                      9
                      A                      A                      A
 Frequencies --    355.7864               407.3977               487.2364
 Red. masses --      2.2545                 2.3842                 2.3681
 Frc consts  --      0.1681                 0.2331                 0.3312
 IR Inten    --      0.9335                 5.3514                 0.9163

                     10                     11                     12
                      A                      A                      A
 Frequencies --    506.4411               592.0205               734.5641
 Red. masses --      1.2876                 2.8741                 2.8532
 Frc consts  --      0.1946                 0.5935                 0.9071
 IR Inten    --     89.6099                19.4100                21.6848

                     13                     14                     15
                      A                      A                      A
 Frequencies --    785.8864               870.8241               926.4644
 Red. masses --      1.5201                 2.5549                 1.2980
 Frc consts  --      0.5532                 1.1415                 0.6564
 IR Inten    --     32.3548                 2.5309                 6.6739

                     16                     17                     18
                      A                      A                      A
 Frequencies --    934.9979               949.3072               968.1189
 Red. masses --      1.1754                 1.5096                 2.2276
 Frc consts  --      0.6054                 0.8015                 1.2301
 IR Inten    --      0.3430                 1.5969                 9.3516

                     19                     20                     21
                      A                      A                      A
 Frequencies --   1087.3955              1151.9682              1167.9871
 Red. masses --      3.0660                 2.3620                 2.1575
 Frc consts  --      2.1360                 1.8467                 1.7341
 IR Inten    --     63.3729               173.3883               106.6859

                     22                     23                     24
                      A                      A                      A
 Frequencies --   1181.6138              1206.5353              1248.2341
 Red. masses --      2.1479                 1.7995                 1.3901
 Frc consts  --      1.7669                 1.5434                 1.2761
 IR Inten    --     31.3110                37.5675                64.1102

                     25                     26                     27
                      A                      A                      A
 Frequencies --   1368.5580              1371.0802              1375.9333
 Red. masses --      1.4938                 1.2891                 1.2531
 Frc consts  --      1.6485                 1.4278                 1.3978
 IR Inten    --      0.2277                 5.2807                49.9518

                     28                     29                     30
                      A                      A                      A
 Frequencies --   1407.4623              1418.1531              1434.1531
 Red. masses --      1.4554                 1.3121                 1.3970
 Frc consts  --      1.6987                 1.5547                 1.6929
 IR Inten    --     25.9475                34.6925                49.6546

                     31                     32                     33
                      A                      A                      A
 Frequencies --   1483.3872              1488.5421              1495.8045
 Red. masses --      1.0588                 1.0484                 1.0557
 Frc consts  --      1.3727                 1.3687                 1.3917
 IR Inten    --      1.0720                 0.0417                 5.5963

                     34                     35                     36
                      A                      A                      A
 Frequencies --   1512.5861              1775.9194              3023.5608
 Red. masses --      1.0592                 6.2753                 1.0841
 Frc consts  --      1.4278                11.6609                 5.8393
 IR Inten    --      8.6231                57.9747                28.6653

                     37                     38                     39
                      A                      A                      A
 Frequencies --   3061.6636              3069.5322              3134.7183
 Red. masses --      1.0355                 1.0356                 1.1020
 Frc consts  --      5.7190                 5.7487                 6.3799
 IR Inten    --     10.2353                13.0541                 7.8754

                     40                     41                     42
                      A                      A                      A
 Frequencies --   3143.3670              3145.7065              3155.2580
 Red. masses --      1.1018                 1.1020                 1.1030
 Frc consts  --      6.4144                 6.4252                 6.4701
 IR Inten    --     18.5951                24.4844                16.1216

                     43                     44                     45
                      A                      A                      A
 Frequencies --   3202.1711              3255.4333              3819.3692
 Red. masses --      1.0896                 1.0984                 1.0645
 Frc consts  --      6.5826                 6.8584                 9.1488
 IR Inten    --      8.8352                 7.3443                51.7126

 - Thermochemistry -
 -------------------
 Temperature   298.150 Kelvin.  Pressure   1.00000 Atm.
 Atom     1 has atomic number  8 and mass  15.99491

 Molecular mass:   102.06808 amu.
 Principal axes and moments of inertia in atomic units:
                           1         2         3
     Eigenvalues --   348.914721222.439421277.15064
           X            0.99982  -0.00501   0.01839
           Y            0.00450   0.99961   0.02774
           Z           -0.01852  -0.02765   0.99945
 This molecule is an asymmetric top.
 Rotational symmetry number  1.
 Rotational temperatures (Kelvin)      0.24824     0.07085     0.06782
 Rotational constants (GHZ):           5.17244     1.47634     1.41310
 Zero-point vibrational energy     387405.6 (Joules/Mol)
                                   92.59216 (Kcal/Mol)
 Warning -- explicit consideration of  11 degrees of freedom as
           vibrations may cause significant error
 Vibrational temperatures:     44.94   114.88   275.98   305.91   351.87
          (Kelvin)            437.31   511.90   586.15   701.02   728.66
                              851.79  1056.87  1130.72  1252.92  1332.98
                             1345.25  1365.84  1392.91  1564.52  1657.43
                             1680.47  1700.08  1735.94  1795.93  1969.05
                             1972.68  1979.66  2025.02  2040.41  2063.43
                             2134.26  2141.68  2152.13  2176.27  2555.15
                             4350.23  4405.05  4416.37  4510.16  4522.60
                             4525.97  4539.71  4607.21  4683.84  5495.22

 Zero-point correction=                           0.147555 (Hartree/Particle)
 Thermal correction to Energy=                    0.155941
 Thermal correction to Enthalpy=                  0.156885
 Thermal correction to Gibbs Free Energy=         0.114105
 Sum of electronic and zero-point Energies=           -346.801981
 Sum of electronic and thermal Energies=              -346.793594
 Sum of electronic and thermal Enthalpies=            -346.792650
 Sum of electronic and thermal Free Energies=         -346.835430

                     E (Thermal)             CV                S
                      KCal/Mol        Cal/Mol-Kelvin    Cal/Mol-Kelvin
 Total                   97.855             29.677             90.038
 Electronic               0.000              0.000              0.000
 Translational            0.889              2.981             39.779
 Rotational               0.889              2.981             27.790
 Vibrational             96.077             23.715             22.469
 Vibration     1          0.594              1.983              5.750
 Vibration     2          0.600              1.963              3.895
 Vibration     3          0.634              1.851              2.210
 Vibration     4          0.644              1.822              2.021
 Vibration     5          0.660              1.772              1.769
 Vibration     6          0.695              1.666              1.395
 Vibration     7          0.731              1.563              1.140
 Vibration     8          0.772              1.454              0.936
 Vibration     9          0.843              1.278              0.691
 Vibration    10          0.862              1.236              0.642
 Vibration    11          0.950              1.049              0.464

 Optimization completed.
    -- Stationary point found.
 Normal termination of Gaussian 16 at Thu Sep 26 15:21:16 2019.
