 Gaussian 16, Revision A.03,
 Gaussian 16:  EM64L-G16RevA.03 25-Dec-2016

 ----------------------------------------------------------------------
 #p m062x/cc-pVTZ opt=(calcfc,maxcycles=900,Tight) freq IOP(7/33=1,2/16
 =3) scf=(maxcycle=900)
 ----------------------------------------------------------------------

 ------------------------------
 Gaussian input prepared by ASE
 ------------------------------
 Symbolic Z-matrix:
 Charge =  0 Multiplicity = 1

 SCF Done:  E(RM062X) =  -346.919710428     A.U. after   13 cycles
 SCF Done:  E(RM062X) =  -346.934382885     A.U. after   12 cycles
 SCF Done:  E(RM062X) =  -346.938804934     A.U. after   13 cycles
 SCF Done:  E(RM062X) =  -346.943348318     A.U. after   12 cycles
 SCF Done:  E(RM062X) =  -346.893807615     A.U. after   13 cycles
 SCF Done:  E(RM062X) =  -346.945067556     A.U. after   12 cycles
 SCF Done:  E(RM062X) =  -346.944221802     A.U. after   12 cycles
 SCF Done:  E(RM062X) =  -346.948482059     A.U. after   12 cycles
 SCF Done:  E(RM062X) =  -346.949277997     A.U. after   12 cycles
 SCF Done:  E(RM062X) =  -346.949429481     A.U. after   10 cycles
 SCF Done:  E(RM062X) =  -346.949535519     A.U. after    9 cycles
 SCF Done:  E(RM062X) =  -346.949535515     A.U. after    9 cycles
 SCF Done:  E(RM062X) =  -346.949535494     A.U. after    9 cycles
 SCF Done:  E(RM062X) =  -346.949535497     A.U. after    9 cycles
 SCF Done:  E(RM062X) =  -346.949535513     A.U. after    9 cycles
 SCF Done:  E(RM062X) =  -346.949535508     A.U. after    9 cycles
 SCF Done:  E(RM062X) =  -346.949535501     A.U. after    9 cycles
 SCF Done:  E(RM062X) =  -346.949535500     A.U. after    9 cycles
 SCF Done:  E(RM062X) =  -346.949535506     A.U. after    4 cycles
 Optimization completed.
    -- Stationary point found.
 Normal termination of Gaussian 16 at Thu Sep 26 22:21:13 2019.

 ----------------------------------------------------------------------
 #P Geom=AllCheck Guess=TCheck SCRF=Check Test GenChk RM062X/CC-pVTZ Fr
 eq
 ----------------------------------------------------------------------

 Structure from the checkpoint file:  "/scratch/harms.n/gauss_scrdir/Gau-9065.chk"
 ------------------------------
 Gaussian input prepared by ASE
 ------------------------------
 Charge =  0 Multiplicity = 1

                         Standard orientation:
 ---------------------------------------------------------------------
 Center     Atomic      Atomic             Coordinates (Angstroms)
 Number     Number       Type             X           Y           Z
 ---------------------------------------------------------------------
      1          8           0        0.078774    0.681123    0.101434
      2          8           0       -2.346350   -0.325167    0.925844
      3          6           0        1.295927    0.066471   -0.336548
      4          6           0        1.174551   -1.445372   -0.275645
      5          6           0        2.393958    0.600692    0.556747
      6          6           0       -0.969196    0.562963   -0.777962
      7          6           0       -2.133183    0.099205   -0.344538
      8          1           0        1.475659    0.379027   -1.371994
      9          1           0        1.019727   -1.762710    0.756828
     10          1           0        0.332179   -1.789890   -0.874622
     11          1           0        2.082375   -1.918119   -0.649830
     12          1           0        2.197133    0.319369    1.591748
     13          1           0        2.441775    1.686324    0.496458
     14          1           0        3.357824    0.186653    0.263135
     15          1           0       -0.811056    0.896773   -1.795426
     16          1           0       -3.006396    0.044841   -0.975916
     17          1           0       -1.520953   -0.193674    1.409067
 ---------------------------------------------------------------------

 SCF Done:  E(RM062X) =  -346.949535506     A.U. after    1 cycles

 The electronic state is 1-A.
 Alpha  occ. eigenvalues --  -19.64448 -19.64208 -10.59928 -10.58483 -10.57298
 Alpha  occ. eigenvalues --  -10.53065 -10.52986  -1.19078  -1.16458  -0.89951
 Alpha  occ. eigenvalues --   -0.83090  -0.79072  -0.70572  -0.66670  -0.61273
 Alpha  occ. eigenvalues --   -0.58351  -0.53927  -0.52658  -0.50918  -0.46962
 Alpha  occ. eigenvalues --   -0.46169  -0.45783  -0.44998  -0.43892  -0.42445
 Alpha  occ. eigenvalues --   -0.39942  -0.36880  -0.27172
 Alpha virt. eigenvalues --    0.06206   0.07943   0.08233   0.10142   0.11279
 Alpha virt. eigenvalues --    0.11472   0.12453   0.14142   0.15717   0.16435
 Alpha virt. eigenvalues --    0.17801   0.18389   0.20272   0.22690   0.24780

 Mulliken charges:
               1
     1  O   -0.297770
     2  O   -0.350756
     3  C    0.022791
     4  C   -0.371529
     5  C   -0.337690
     6  C   -0.097201
     7  C    0.011917
     8  H    0.129570
     9  H    0.125992
    10  H    0.139479
    11  H    0.126751
    12  H    0.119402
    13  H    0.126985
    14  H    0.109560
    15  H    0.122636
    16  H    0.153536
    17  H    0.266325
 Sum of Mulliken charges =   0.00000

 Dipole moment (field-independent basis, Debye):
    X=              1.8740    Y=             -0.3530    Z=             -1.0681  Tot=              2.1857
 Quadrupole moment (field-independent basis, Debye-Ang):
   XX=            -44.5985   YY=            -45.9386   ZZ=            -41.3019
   XY=             -0.9263   XZ=              2.6560   YZ=             -0.7827

  Exact polarizability:  83.837   3.021  58.267  -0.374  -2.599  61.810
 Approx polarizability:  89.838   5.123  69.373  -4.052  -3.955  77.373

                      1                      2                      3
                      A                      A                      A
 Frequencies --     31.2345                79.8492               191.8183
 Red. masses --      3.8033                 3.4960                 2.7329
 Frc consts  --      0.0022                 0.0131                 0.0592
 IR Inten    --      0.6819                 0.4955                 2.1515

                      4                      5                      6
                      A                      A                      A
 Frequencies --    212.6191               244.5630               303.9423
 Red. masses --      1.0978                 1.1646                 3.0881
 Frc consts  --      0.0292                 0.0410                 0.1681
 IR Inten    --      0.3974                 0.8336                 5.9608

                      7                      8                      9
                      A                      A                      A
 Frequencies --    355.7855               407.4009               487.2362
 Red. masses --      2.2545                 2.3844                 2.3681
 Frc consts  --      0.1681                 0.2332                 0.3312
 IR Inten    --      0.9334                 5.3497                 0.9169

                     10                     11                     12
                      A                      A                      A
 Frequencies --    506.4609               592.0249               734.5685
 Red. masses --      1.2876                 2.8739                 2.8535
 Frc consts  --      0.1946                 0.5935                 0.9072
 IR Inten    --     89.6032                19.4186                21.6806

                     13                     14                     15
                      A                      A                      A
 Frequencies --    785.9018               870.8239               926.4747
 Red. masses --      1.5200                 2.5549                 1.2980
 Frc consts  --      0.5532                 1.1415                 0.6565
 IR Inten    --     32.3597                 2.5309                 6.6737

                     16                     17                     18
                      A                      A                      A
 Frequencies --    934.9946               949.3072               968.1185
 Red. masses --      1.1754                 1.5096                 2.2275
 Frc consts  --      0.6054                 0.8016                 1.2301
 IR Inten    --      0.3427                 1.5971                 9.3513

                     19                     20                     21
                      A                      A                      A
 Frequencies --   1087.3965              1151.9701              1167.9869
 Red. masses --      3.0661                 2.3620                 2.1575
 Frc consts  --      2.1360                 1.8468                 1.7341
 IR Inten    --     63.3720               173.3873               106.6852

                     22                     23                     24
                      A                      A                      A
 Frequencies --   1181.6137              1206.5349              1248.2365
 Red. masses --      2.1479                 1.7995                 1.3901
 Frc consts  --      1.7669                 1.5434                 1.2761
 IR Inten    --     31.3083                37.5678                64.1103

                     25                     26                     27
                      A                      A                      A
 Frequencies --   1368.5601              1371.0770              1375.9354
 Red. masses --      1.4938                 1.2891                 1.2531
 Frc consts  --      1.6484                 1.4278                 1.3978
 IR Inten    --      0.2278                 5.2781                49.9522

                     28                     29                     30
                      A                      A                      A
 Frequencies --   1407.4606              1418.1531              1434.1551
 Red. masses --      1.4554                 1.3121                 1.3970
 Frc consts  --      1.6987                 1.5547                 1.6929
 IR Inten    --     25.9473                34.6916                49.6551

                     31                     32                     33
                      A                      A                      A
 Frequencies --   1483.3867              1488.5418              1495.8040
 Red. masses --      1.0588                 1.0484                 1.0557
 Frc consts  --      1.3727                 1.3687                 1.3917
 IR Inten    --      1.0720                 0.0417                 5.5966

                     34                     35                     36
                      A                      A                      A
 Frequencies --   1512.5856              1775.9177              3023.5611
 Red. masses --      1.0592                 6.2753                 1.0841
 Frc consts  --      1.4278                11.6608                 5.8393
 IR Inten    --      8.6227                57.9756                28.6651

                     37                     38                     39
                      A                      A                      A
 Frequencies --   3061.6644              3069.5321              3134.7189
 Red. masses --      1.0355                 1.0356                 1.1020
 Frc consts  --      5.7190                 5.7487                 6.3799
 IR Inten    --     10.2354                13.0542                 7.8749

                     40                     41                     42
                      A                      A                      A
 Frequencies --   3143.3673              3145.7066              3155.2579
 Red. masses --      1.1018                 1.1020                 1.1030
 Frc consts  --      6.4144                 6.4252                 6.4701
 IR Inten    --     18.5980                24.4822                16.1217

                     43                     44                     45
                      A                      A                      A
 Frequencies --   3202.1712              3255.4311              3819.3657
 Red. masses --      1.0896                 1.0984                 1.0645
 Frc consts  --      6.5826                 6.8584                 9.1487
 IR Inten    --      8.8352                 7.3445                51.7130

 - Thermochemistry -
 -------------------
 Temperature   298.150 Kelvin.  Pressure   1.00000 Atm.
 Atom     1 has atomic number  8 and mass  15.99491

 Molecular mass:   102.06808 amu.
 Principal axes and moments of inertia in atomic units:
                           1         2         3
     Eigenvalues --   348.915121222.428411277.14747
           X            0.99982  -0.00501   0.01839
           Y            0.00450   0.99961   0.02772
           Z           -0.01852  -0.02764   0.99945
 This molecule is an asymmetric top.
 Rotational symmetry number  1.
 Rotational temperatures (Kelvin)      0.24824     0.07085     0.06782
 Rotational constants (GHZ):           5.17244     1.47636     1.41310
 Zero-point vibrational energy     387405.9 (Joules/Mol)
                                   92.59224 (Kcal/Mol)
 Warning -- explicit consideration of  11 degrees of freedom as
           vibrations may cause significant error
 Vibrational temperatures:     44.94   114.89   275.98   305.91   351.87
          (Kelvin)            437.31   511.90   586.16   701.02   728.68
                              851.79  1056.88  1130.74  1252.92  1332.99
                             1345.25  1365.84  1392.91  1564.52  1657.43
                             1680.47  1700.08  1735.93  1795.93  1969.05
                             1972.67  1979.66  2025.02  2040.41  2063.43
                             2134.26  2141.68  2152.13  2176.27  2555.15
                             4350.23  4405.05  4416.37  4510.16  4522.60
                             4525.97  4539.71  4607.21  4683.84  5495.22

 Zero-point correction=                           0.147555 (Hartree/Particle)
 Thermal correction to Energy=                    0.155941
 Thermal correction to Enthalpy=                  0.156885
 Thermal correction to Gibbs Free Energy=         0.114106
 Sum of electronic and zero-point Energies=           -346.801980
 Sum of electronic and thermal Energies=              -346.793594
 Sum of electronic and thermal Enthalpies=            -346.792650
 Sum of electronic and thermal Free Energies=         -346.835430

                     E (Thermal)             CV                S
                      KCal/Mol        Cal/Mol-Kelvin    Cal/Mol-Kelvin
 Total                   97.855             29.677             90.037
 Electronic               0.000              0.000              0.000
 Translational            0.889              2.981             39.779
 Rotational               0.889              2.981             27.790
 Vibrational             96.077             23.715             22.468
 Vibration     1          0.594              1.983              5.749
 Vibration     2          0.600              1.963              3.895
 Vibration     3          0.634              1.851              2.210
 Vibration     4          0.644              1.822              2.021
 Vibration     5          0.660              1.772              1.769
 Vibration     6          0.695              1.666              1.395
 Vibration     7          0.731              1.563              1.140
 Vibration     8          0.772              1.454              0.936
 Vibration     9          0.843              1.278              0.691
 Vibration    10          0.862              1.236              0.642
 Vibration    11          0.950              1.049              0.464

                           ! Non-Optimized Parameters !
 Normal termination of Gaussian 16 at Thu Sep 26 23:42:41 2019.
