 Gaussian 16, Revision A.03,
 Gaussian 16:  EM64L-G16RevA.03 25-Dec-2016

 ----------------------------------------------------------------------
 #p m062x/cc-pVTZ opt=(calcfc,maxcycles=900,Tight) freq IOP(7/33=1,2/16
 =3) scf=(maxcycle=900)
 ----------------------------------------------------------------------

 ------------------------------
 Gaussian input prepared by ASE
 ------------------------------
 Symbolic Z-matrix:
 Charge =  0 Multiplicity = 1

 SCF Done:  E(RM062X) =  -346.924177853     A.U. after   13 cycles
 SCF Done:  E(RM062X) =  -346.938677610     A.U. after   13 cycles
 SCF Done:  E(RM062X) =  -346.919742168     A.U. after   13 cycles
 SCF Done:  E(RM062X) =  -346.943791756     A.U. after   12 cycles
 SCF Done:  E(RM062X) =  -346.946560286     A.U. after   11 cycles
 SCF Done:  E(RM062X) =  -346.947394573     A.U. after   11 cycles
 SCF Done:  E(RM062X) =  -346.947698511     A.U. after   10 cycles
 SCF Done:  E(RM062X) =  -346.947819745     A.U. after   10 cycles
 SCF Done:  E(RM062X) =  -346.947851306     A.U. after    9 cycles
 SCF Done:  E(RM062X) =  -346.947888697     A.U. after   10 cycles
 SCF Done:  E(RM062X) =  -346.949497268     A.U. after   10 cycles
 SCF Done:  E(RM062X) =  -346.949522358     A.U. after   10 cycles
 SCF Done:  E(RM062X) =  -346.949531584     A.U. after    9 cycles
 SCF Done:  E(RM062X) =  -346.949535276     A.U. after    9 cycles
 SCF Done:  E(RM062X) =  -346.949535488     A.U. after    7 cycles
 SCF Done:  E(RM062X) =  -346.949535507     A.U. after    5 cycles
 SCF Done:  E(RM062X) =  -346.949535506     A.U. after    4 cycles
 SCF Done:  E(RM062X) =  -346.949535518     A.U. after    5 cycles
 SCF Done:  E(RM062X) =  -346.949535504     A.U. after    5 cycles
 Optimization completed.
    -- Stationary point found.
 Normal termination of Gaussian 16 at Thu Sep 26 17:41:11 2019.

 ----------------------------------------------------------------------
 #P Geom=AllCheck Guess=TCheck SCRF=Check Test GenChk RM062X/CC-pVTZ Fr
 eq
 ----------------------------------------------------------------------

 Structure from the checkpoint file:  "/scratch/harms.n/gauss_scrdir/Gau-41107.chk"
 ------------------------------
 Gaussian input prepared by ASE
 ------------------------------
 Charge =  0 Multiplicity = 1

                         Standard orientation:
 ---------------------------------------------------------------------
 Center     Atomic      Atomic             Coordinates (Angstroms)
 Number     Number       Type             X           Y           Z
 ---------------------------------------------------------------------
      1          8           0       -0.078771   -0.681128   -0.101387
      2          8           0        2.346353    0.325093   -0.925872
      3          6           0       -1.295929   -0.066455    0.336551
      4          6           0       -2.393951   -0.600729   -0.556724
      5          6           0       -1.174560    1.445384    0.275567
      6          6           0        0.969196   -0.562896    0.778003
      7          6           0        2.133183   -0.099173    0.344545
      8          1           0       -1.475669   -0.378957    1.372013
      9          1           0       -2.197123   -0.319453   -1.591737
     10          1           0       -2.441758   -1.686358   -0.496384
     11          1           0       -3.357822   -0.186684   -0.263136
     12          1           0       -1.019715    1.762666   -0.756920
     13          1           0       -0.332204    1.789942    0.874543
     14          1           0       -2.082395    1.918147    0.649705
     15          1           0        0.811051   -0.896620    1.795496
     16          1           0        3.006394   -0.044753    0.975922
     17          1           0        1.520957    0.193558   -1.409085
 ---------------------------------------------------------------------

 SCF Done:  E(RM062X) =  -346.949535504     A.U. after    1 cycles

 The electronic state is 1-A.
 Alpha  occ. eigenvalues --  -19.64448 -19.64208 -10.59928 -10.58483 -10.57298
 Alpha  occ. eigenvalues --  -10.53065 -10.52986  -1.19078  -1.16458  -0.89951
 Alpha  occ. eigenvalues --   -0.83090  -0.79072  -0.70572  -0.66670  -0.61272
 Alpha  occ. eigenvalues --   -0.58351  -0.53927  -0.52658  -0.50918  -0.46962
 Alpha  occ. eigenvalues --   -0.46169  -0.45783  -0.44998  -0.43892  -0.42445
 Alpha  occ. eigenvalues --   -0.39942  -0.36880  -0.27172
 Alpha virt. eigenvalues --    0.06206   0.07943   0.08233   0.10142   0.11279
 Alpha virt. eigenvalues --    0.11472   0.12453   0.14142   0.15717   0.16435
 Alpha virt. eigenvalues --    0.17801   0.18389   0.20272   0.22690   0.24780

 Mulliken charges:
               1
     1  O   -0.297769
     2  O   -0.350756
     3  C    0.022789
     4  C   -0.337690
     5  C   -0.371528
     6  C   -0.097201
     7  C    0.011916
     8  H    0.129571
     9  H    0.119402
    10  H    0.126986
    11  H    0.109560
    12  H    0.125992
    13  H    0.139478
    14  H    0.126751
    15  H    0.122637
    16  H    0.153536
    17  H    0.266325
 Sum of Mulliken charges =   0.00000

 Dipole moment (field-independent basis, Debye):
    X=             -1.8741    Y=              0.3531    Z=              1.0681  Tot=              2.1858
 Quadrupole moment (field-independent basis, Debye-Ang):
   XX=            -44.5986   YY=            -45.9388   ZZ=            -41.3018
   XY=             -0.9260   XZ=              2.6561   YZ=             -0.7823

  Exact polarizability:  83.837   3.021  58.267  -0.374  -2.598  61.810
 Approx polarizability:  89.838   5.123  69.372  -4.052  -3.954  77.373

                      1                      2                      3
                      A                      A                      A
 Frequencies --     31.2316                79.8471               191.8159
 Red. masses --      3.8032                 3.4960                 2.7328
 Frc consts  --      0.0022                 0.0131                 0.0592
 IR Inten    --      0.6819                 0.4955                 2.1514

                      4                      5                      6
                      A                      A                      A
 Frequencies --    212.6209               244.5645               303.9427
 Red. masses --      1.0978                 1.1646                 3.0880
 Frc consts  --      0.0292                 0.0410                 0.1681
 IR Inten    --      0.3974                 0.8337                 5.9608

                      7                      8                      9
                      A                      A                      A
 Frequencies --    355.7866               407.3994               487.2363
 Red. masses --      2.2545                 2.3843                 2.3681
 Frc consts  --      0.1681                 0.2332                 0.3312
 IR Inten    --      0.9334                 5.3505                 0.9166

                     10                     11                     12
                      A                      A                      A
 Frequencies --    506.4512               592.0234               734.5663
 Red. masses --      1.2876                 2.8740                 2.8533
 Frc consts  --      0.1946                 0.5935                 0.9071
 IR Inten    --     89.6064                19.4143                21.6833

                     13                     14                     15
                      A                      A                      A
 Frequencies --    785.8925               870.8243               926.4685
 Red. masses --      1.5201                 2.5549                 1.2980
 Frc consts  --      0.5532                 1.1415                 0.6564
 IR Inten    --     32.3563                 2.5310                 6.6735

                     16                     17                     18
                      A                      A                      A
 Frequencies --    934.9969               949.3079               968.1192
 Red. masses --      1.1754                 1.5096                 2.2276
 Frc consts  --      0.6054                 0.8015                 1.2301
 IR Inten    --      0.3429                 1.5969                 9.3516

                     19                     20                     21
                      A                      A                      A
 Frequencies --   1087.3960              1151.9687              1167.9877
 Red. masses --      3.0661                 2.3620                 2.1575
 Frc consts  --      2.1360                 1.8468                 1.7341
 IR Inten    --     63.3725               173.3939               106.6780

                     22                     23                     24
                      A                      A                      A
 Frequencies --   1181.6145              1206.5356              1248.2351
 Red. masses --      2.1479                 1.7995                 1.3901
 Frc consts  --      1.7669                 1.5434                 1.2761
 IR Inten    --     31.3107                37.5671                64.1103

                     25                     26                     27
                      A                      A                      A
 Frequencies --   1368.5588              1371.0797              1375.9346
 Red. masses --      1.4938                 1.2891                 1.2531
 Frc consts  --      1.6484                 1.4278                 1.3978
 IR Inten    --      0.2278                 5.2804                49.9512

                     28                     29                     30
                      A                      A                      A
 Frequencies --   1407.4622              1418.1534              1434.1539
 Red. masses --      1.4554                 1.3121                 1.3970
 Frc consts  --      1.6987                 1.5547                 1.6929
 IR Inten    --     25.9477                34.6922                49.6543

                     31                     32                     33
                      A                      A                      A
 Frequencies --   1483.3873              1488.5424              1495.8045
 Red. masses --      1.0588                 1.0484                 1.0557
 Frc consts  --      1.3727                 1.3687                 1.3917
 IR Inten    --      1.0720                 0.0417                 5.5964

                     34                     35                     36
                      A                      A                      A
 Frequencies --   1512.5864              1775.9188              3023.5596
 Red. masses --      1.0592                 6.2753                 1.0841
 Frc consts  --      1.4278                11.6609                 5.8393
 IR Inten    --      8.6231                57.9747                28.6658

                     37                     38                     39
                      A                      A                      A
 Frequencies --   3061.6639              3069.5316              3134.7187
 Red. masses --      1.0355                 1.0356                 1.1020
 Frc consts  --      5.7190                 5.7487                 6.3799
 IR Inten    --     10.2353                13.0542                 7.8746

                     40                     41                     42
                      A                      A                      A
 Frequencies --   3143.3666              3145.7061              3155.2571
 Red. masses --      1.1018                 1.1020                 1.1030
 Frc consts  --      6.4144                 6.4252                 6.4701
 IR Inten    --     18.5960                24.4845                16.1218

                     43                     44                     45
                      A                      A                      A
 Frequencies --   3202.1712              3255.4311              3819.3652
 Red. masses --      1.0896                 1.0984                 1.0645
 Frc consts  --      6.5826                 6.8584                 9.1487
 IR Inten    --      8.8351                 7.3444                51.7129

 - Thermochemistry -
 -------------------
 Temperature   298.150 Kelvin.  Pressure   1.00000 Atm.
 Atom     1 has atomic number  8 and mass  15.99491

 Molecular mass:   102.06808 amu.
 Principal axes and moments of inertia in atomic units:
                           1         2         3
     Eigenvalues --   348.915261222.431761277.14519
           X            0.99982  -0.00501   0.01839
           Y            0.00450   0.99961   0.02774
           Z           -0.01852  -0.02765   0.99945
 This molecule is an asymmetric top.
 Rotational symmetry number  1.
 Rotational temperatures (Kelvin)      0.24824     0.07085     0.06782
 Rotational constants (GHZ):           5.17243     1.47635     1.41311
 Zero-point vibrational energy     387405.8 (Joules/Mol)
                                   92.59220 (Kcal/Mol)
 Warning -- explicit consideration of  11 degrees of freedom as
           vibrations may cause significant error
 Vibrational temperatures:     44.94   114.88   275.98   305.91   351.87
          (Kelvin)            437.31   511.90   586.16   701.02   728.67
                              851.79  1056.88  1130.72  1252.92  1332.98
                             1345.25  1365.84  1392.91  1564.52  1657.43
                             1680.47  1700.08  1735.94  1795.93  1969.05
                             1972.68  1979.66  2025.02  2040.41  2063.43
                             2134.26  2141.68  2152.13  2176.27  2555.15
                             4350.23  4405.05  4416.37  4510.16  4522.60
                             4525.97  4539.71  4607.21  4683.84  5495.21

 Zero-point correction=                           0.147555 (Hartree/Particle)
 Thermal correction to Energy=                    0.155941
 Thermal correction to Enthalpy=                  0.156885
 Thermal correction to Gibbs Free Energy=         0.114106
 Sum of electronic and zero-point Energies=           -346.801980
 Sum of electronic and thermal Energies=              -346.793594
 Sum of electronic and thermal Enthalpies=            -346.792650
 Sum of electronic and thermal Free Energies=         -346.835430

                     E (Thermal)             CV                S
                      KCal/Mol        Cal/Mol-Kelvin    Cal/Mol-Kelvin
 Total                   97.855             29.677             90.038
 Electronic               0.000              0.000              0.000
 Translational            0.889              2.981             39.779
 Rotational               0.889              2.981             27.790
 Vibrational             96.077             23.715             22.469
 Vibration     1          0.594              1.983              5.750
 Vibration     2          0.600              1.963              3.895
 Vibration     3          0.634              1.851              2.210
 Vibration     4          0.644              1.822              2.021
 Vibration     5          0.660              1.772              1.769
 Vibration     6          0.695              1.666              1.395
 Vibration     7          0.731              1.563              1.140
 Vibration     8          0.772              1.454              0.936
 Vibration     9          0.843              1.278              0.691
 Vibration    10          0.862              1.236              0.642
 Vibration    11          0.950              1.049              0.464

 Optimization completed.
    -- Stationary point found.
 Normal termination of Gaussian 16 at Thu Sep 26 19:31:45 2019.
