 Gaussian 16, Revision A.03,
 Gaussian 16:  EM64L-G16RevA.03 25-Dec-2016

 ----------------------------------------------------------------------
 #p m062x/cc-pVTZ opt=(calcfc,maxcycles=900,Tight) freq IOP(7/33=1,2/16
 =3) scf=(maxcycle=900)
 ----------------------------------------------------------------------

 ------------------------------
 Gaussian input prepared by ASE
 ------------------------------
 Symbolic Z-matrix:
 Charge =  0 Multiplicity = 1

 SCF Done:  E(RM062X) =  -346.932935563     A.U. after   13 cycles
 SCF Done:  E(RM062X) =  -346.943699053     A.U. after   12 cycles
 SCF Done:  E(RM062X) =  -346.947455350     A.U. after   13 cycles
 SCF Done:  E(RM062X) =  -346.948071193     A.U. after   13 cycles
 SCF Done:  E(RM062X) =  -346.948873572     A.U. after   11 cycles
 SCF Done:  E(RM062X) =  -346.949020498     A.U. after   10 cycles
 SCF Done:  E(RM062X) =  -346.949195473     A.U. after   11 cycles
 SCF Done:  E(RM062X) =  -346.949315156     A.U. after   11 cycles
 SCF Done:  E(RM062X) =  -346.949384599     A.U. after   10 cycles
 SCF Done:  E(RM062X) =  -346.949512647     A.U. after   11 cycles
 SCF Done:  E(RM062X) =  -346.949534817     A.U. after    9 cycles
 SCF Done:  E(RM062X) =  -346.949535680     A.U. after    8 cycles
 SCF Done:  E(RM062X) =  -346.949535548     A.U. after    7 cycles
 SCF Done:  E(RM062X) =  -346.949535521     A.U. after    5 cycles
 SCF Done:  E(RM062X) =  -346.949535508     A.U. after    5 cycles
 SCF Done:  E(RM062X) =  -346.949535505     A.U. after    3 cycles
 SCF Done:  E(RM062X) =  -346.949535507     A.U. after    3 cycles
 Optimization completed.
    -- Stationary point found.
 Normal termination of Gaussian 16 at Thu Sep 26 13:32:26 2019.

 ----------------------------------------------------------------------
 #P Geom=AllCheck Guess=TCheck SCRF=Check Test GenChk RM062X/CC-pVTZ Fr
 eq
 ----------------------------------------------------------------------

 Structure from the checkpoint file:  "/scratch/harms.n/gauss_scrdir/Gau-32465.chk"
 ------------------------------
 Gaussian input prepared by ASE
 ------------------------------
 Charge =  0 Multiplicity = 1

                         Standard orientation:
 ---------------------------------------------------------------------
 Center     Atomic      Atomic             Coordinates (Angstroms)
 Number     Number       Type             X           Y           Z
 ---------------------------------------------------------------------
      1          8           0        0.078778   -0.681127   -0.101477
      2          8           0       -2.346336    0.325239   -0.925821
      3          6           0        1.295922   -0.066486    0.336546
      4          6           0        1.174531    1.445358    0.275724
      5          6           0        2.393964   -0.600648   -0.556771
      6          6           0       -0.969197   -0.563032    0.777922
      7          6           0       -2.133179   -0.099234    0.344529
      8          1           0        1.475651   -0.379097    1.371977
      9          1           0        1.019711    1.762752   -0.756732
     10          1           0        0.332151    1.789835    0.874714
     11          1           0        2.082347    1.918095    0.649941
     12          1           0        2.197140   -0.319275   -1.591758
     13          1           0        2.441793   -1.686282   -0.496538
     14          1           0        3.357824   -0.186612   -0.263135
     15          1           0       -0.811063   -0.896922    1.795362
     16          1           0       -3.006395   -0.044912    0.975907
     17          1           0       -1.520939    0.193773   -1.409050
 ---------------------------------------------------------------------

 SCF Done:  E(RM062X) =  -346.949535507     A.U. after    1 cycles

 The electronic state is 1-A.
 Alpha  occ. eigenvalues --  -19.64448 -19.64208 -10.59928 -10.58483 -10.57298
 Alpha  occ. eigenvalues --  -10.53065 -10.52986  -1.19078  -1.16458  -0.89951
 Alpha  occ. eigenvalues --   -0.83090  -0.79072  -0.70572  -0.66670  -0.61273
 Alpha  occ. eigenvalues --   -0.58351  -0.53927  -0.52658  -0.50918  -0.46962
 Alpha  occ. eigenvalues --   -0.46169  -0.45783  -0.44998  -0.43892  -0.42445
 Alpha  occ. eigenvalues --   -0.39942  -0.36880  -0.27172
 Alpha virt. eigenvalues --    0.06206   0.07943   0.08233   0.10142   0.11279
 Alpha virt. eigenvalues --    0.11472   0.12453   0.14142   0.15717   0.16435
 Alpha virt. eigenvalues --    0.17801   0.18389   0.20272   0.22690   0.24780

 Mulliken charges:
               1
     1  O   -0.297769
     2  O   -0.350757
     3  C    0.022793
     4  C   -0.371532
     5  C   -0.337689
     6  C   -0.097201
     7  C    0.011917
     8  H    0.129570
     9  H    0.125992
    10  H    0.139480
    11  H    0.126751
    12  H    0.119402
    13  H    0.126985
    14  H    0.109560
    15  H    0.122636
    16  H    0.153537
    17  H    0.266326
 Sum of Mulliken charges =  -0.00000

 Dipole moment (field-independent basis, Debye):
    X=              1.8740    Y=              0.3529    Z=              1.0681  Tot=              2.1857
 Quadrupole moment (field-independent basis, Debye-Ang):
   XX=            -44.5985   YY=            -45.9386   ZZ=            -41.3021
   XY=              0.9265   XZ=             -2.6559   YZ=             -0.7831

  Exact polarizability:  83.837  -3.021  58.268   0.374  -2.599  61.809
 Approx polarizability:  89.837  -5.123  69.374   4.052  -3.956  77.372

                      1                      2                      3
                      A                      A                      A
 Frequencies --     31.2364                79.8502               191.8211
 Red. masses --      3.8032                 3.4961                 2.7327
 Frc consts  --      0.0022                 0.0131                 0.0592
 IR Inten    --      0.6819                 0.4955                 2.1515

                      4                      5                      6
                      A                      A                      A
 Frequencies --    212.6162               244.5606               303.9416
 Red. masses --      1.0979                 1.1646                 3.0881
 Frc consts  --      0.0292                 0.0410                 0.1681
 IR Inten    --      0.3975                 0.8336                 5.9608

                      7                      8                      9
                      A                      A                      A
 Frequencies --    355.7850               407.4022               487.2358
 Red. masses --      2.2545                 2.3846                 2.3681
 Frc consts  --      0.1681                 0.2332                 0.3312
 IR Inten    --      0.9334                 5.3490                 0.9174

                     10                     11                     12
                      A                      A                      A
 Frequencies --    506.4707               592.0273               734.5711
 Red. masses --      1.2876                 2.8738                 2.8536
 Frc consts  --      0.1946                 0.5935                 0.9072
 IR Inten    --     89.5997                19.4231                21.6778

                     13                     14                     15
                      A                      A                      A
 Frequencies --    785.9113               870.8235               926.4811
 Red. masses --      1.5200                 2.5549                 1.2980
 Frc consts  --      0.5531                 1.1415                 0.6565
 IR Inten    --     32.3628                 2.5310                 6.6735

                     16                     17                     18
                      A                      A                      A
 Frequencies --    934.9920               949.3068               968.1175
 Red. masses --      1.1754                 1.5096                 2.2275
 Frc consts  --      0.6054                 0.8016                 1.2301
 IR Inten    --      0.3425                 1.5972                 9.3512

                     19                     20                     21
                      A                      A                      A
 Frequencies --   1087.3967              1151.9706              1167.9860
 Red. masses --      3.0661                 2.3620                 2.1575
 Frc consts  --      2.1360                 1.8468                 1.7341
 IR Inten    --     63.3714               173.3895               106.6839

                     22                     23                     24
                      A                      A                      A
 Frequencies --   1181.6129              1206.5340              1248.2373
 Red. masses --      2.1478                 1.7995                 1.3901
 Frc consts  --      1.7669                 1.5434                 1.2761
 IR Inten    --     31.3063                37.5662                64.1103

                     25                     26                     27
                      A                      A                      A
 Frequencies --   1368.5611              1371.0746              1375.9360
 Red. masses --      1.4938                 1.2891                 1.2531
 Frc consts  --      1.6484                 1.4278                 1.3978
 IR Inten    --      0.2278                 5.2767                49.9521

                     28                     29                     30
                      A                      A                      A
 Frequencies --   1407.4594              1418.1529              1434.1558
 Red. masses --      1.4554                 1.3121                 1.3970
 Frc consts  --      1.6987                 1.5547                 1.6929
 IR Inten    --     25.9471                34.6907                49.6551

                     31                     32                     33
                      A                      A                      A
 Frequencies --   1483.3863              1488.5415              1495.8034
 Red. masses --      1.0588                 1.0484                 1.0557
 Frc consts  --      1.3727                 1.3687                 1.3917
 IR Inten    --      1.0720                 0.0416                 5.5968

                     34                     35                     36
                      A                      A                      A
 Frequencies --   1512.5852              1775.9154              3023.5628
 Red. masses --      1.0592                 6.2752                 1.0841
 Frc consts  --      1.4278                11.6607                 5.8394
 IR Inten    --      8.6225                57.9761                28.6649

                     37                     38                     39
                      A                      A                      A
 Frequencies --   3061.6655              3069.5330              3134.7202
 Red. masses --      1.0355                 1.0356                 1.1020
 Frc consts  --      5.7190                 5.7487                 6.3799
 IR Inten    --     10.2355                13.0541                 7.8750

                     40                     41                     42
                      A                      A                      A
 Frequencies --   3143.3680              3145.7077              3155.2585
 Red. masses --      1.1018                 1.1020                 1.1030
 Frc consts  --      6.4144                 6.4252                 6.4701
 IR Inten    --     18.5943                24.4857                16.1219

                     43                     44                     45
                      A                      A                      A
 Frequencies --   3202.1720              3255.4302              3819.3642
 Red. masses --      1.0896                 1.0984                 1.0645
 Frc consts  --      6.5826                 6.8584                 9.1487
 IR Inten    --      8.8353                 7.3446                51.7132

 - Thermochemistry -
 -------------------
 Temperature   298.150 Kelvin.  Pressure   1.00000 Atm.
 Atom     1 has atomic number  8 and mass  15.99491

 Molecular mass:   102.06808 amu.
 Principal axes and moments of inertia in atomic units:
                           1         2         3
     Eigenvalues --   348.915731222.420321277.14416
           X            0.99982   0.00502  -0.01839
           Y           -0.00450   0.99961   0.02772
           Z            0.01852  -0.02763   0.99945
 This molecule is an asymmetric top.
 Rotational symmetry number  1.
 Rotational temperatures (Kelvin)      0.24824     0.07085     0.06782
 Rotational constants (GHZ):           5.17243     1.47637     1.41311
 Zero-point vibrational energy     387406.1 (Joules/Mol)
                                   92.59228 (Kcal/Mol)
 Warning -- explicit consideration of  11 degrees of freedom as
           vibrations may cause significant error
 Vibrational temperatures:     44.94   114.89   275.99   305.91   351.87
          (Kelvin)            437.30   511.90   586.16   701.02   728.70
                              851.80  1056.88  1130.75  1252.92  1333.00
                             1345.25  1365.84  1392.91  1564.52  1657.43
                             1680.47  1700.08  1735.93  1795.94  1969.05
                             1972.67  1979.66  2025.02  2040.41  2063.43
                             2134.26  2141.68  2152.13  2176.27  2555.15
                             4350.23  4405.05  4416.37  4510.16  4522.61
                             4525.97  4539.71  4607.21  4683.84  5495.21

 Zero-point correction=                           0.147555 (Hartree/Particle)
 Thermal correction to Energy=                    0.155941
 Thermal correction to Enthalpy=                  0.156885
 Thermal correction to Gibbs Free Energy=         0.114106
 Sum of electronic and zero-point Energies=           -346.801980
 Sum of electronic and thermal Energies=              -346.793594
 Sum of electronic and thermal Enthalpies=            -346.792650
 Sum of electronic and thermal Free Energies=         -346.835430

                     E (Thermal)             CV                S
                      KCal/Mol        Cal/Mol-Kelvin    Cal/Mol-Kelvin
 Total                   97.855             29.677             90.037
 Electronic               0.000              0.000              0.000
 Translational            0.889              2.981             39.779
 Rotational               0.889              2.981             27.790
 Vibrational             96.077             23.715             22.468
 Vibration     1          0.594              1.983              5.749
 Vibration     2          0.600              1.963              3.895
 Vibration     3          0.634              1.851              2.210
 Vibration     4          0.644              1.822              2.021
 Vibration     5          0.660              1.772              1.769
 Vibration     6          0.695              1.666              1.395
 Vibration     7          0.731              1.563              1.140
 Vibration     8          0.772              1.454              0.936
 Vibration     9          0.843              1.278              0.691
 Vibration    10          0.862              1.236              0.642
 Vibration    11          0.950              1.049              0.464

                           ! Non-Optimized Parameters !
 Normal termination of Gaussian 16 at Thu Sep 26 14:54:28 2019.
