 Gaussian 16, Revision A.03,
 Gaussian 16:  EM64L-G16RevA.03 25-Dec-2016

 ----------------------------------------------------------------------
 #p m062x/cc-pVTZ opt=(calcfc,maxcycles=900,Tight) freq IOP(7/33=1,2/16
 =3) scf=(maxcycle=900)
 ----------------------------------------------------------------------

 ------------------------------
 Gaussian input prepared by ASE
 ------------------------------
 Symbolic Z-matrix:
 Charge =  0 Multiplicity = 1

 SCF Done:  E(RM062X) =  -268.307934954     A.U. after   13 cycles
 SCF Done:  E(RM062X) =  -268.315093691     A.U. after   13 cycles
 SCF Done:  E(RM062X) =  -268.316254205     A.U. after   14 cycles
 SCF Done:  E(RM062X) =  -268.317127542     A.U. after   11 cycles
 SCF Done:  E(RM062X) =  -268.317145937     A.U. after    9 cycles
 SCF Done:  E(RM062X) =  -268.317146477     A.U. after    8 cycles
 SCF Done:  E(RM062X) =  -268.317146488     A.U. after    6 cycles
 SCF Done:  E(RM062X) =  -268.317146488     A.U. after    4 cycles
 Optimization completed.
    -- Stationary point found.
 Normal termination of Gaussian 16 at Tue Sep 24 19:23:27 2019.

 ----------------------------------------------------------------------
 #P Geom=AllCheck Guess=TCheck SCRF=Check Test GenChk RM062X/CC-pVTZ Fr
 eq
 ----------------------------------------------------------------------

 Structure from the checkpoint file:  "/scratch/harms.n/gauss_scrdir/Gau-31616.chk"
 ------------------------------
 Gaussian input prepared by ASE
 ------------------------------
 Charge =  0 Multiplicity = 1

                         Standard orientation:
 ---------------------------------------------------------------------
 Center     Atomic      Atomic             Coordinates (Angstroms)
 Number     Number       Type             X           Y           Z
 ---------------------------------------------------------------------
      1          8           0       -1.145926   -0.443885   -0.366094
      2          8           0        2.397107    0.149818    0.141754
      3          6           0       -2.204570    0.217577    0.295381
      4          6           0        0.042568    0.226398   -0.276054
      5          6           0        1.149952   -0.394503    0.102439
      6          1           0       -3.106529   -0.362401    0.118938
      7          1           0       -2.013310    0.283282    1.369518
      8          1           0       -2.342891    1.227878   -0.102490
      9          1           0        0.029440    1.275160   -0.570271
     10          1           0        1.136995   -1.433730    0.397961
     11          1           0        2.359147    1.065523   -0.149532
 ---------------------------------------------------------------------

 SCF Done:  E(RM062X) =  -268.317146488     A.U. after    1 cycles

 The electronic state is 1-A.
 Alpha  occ. eigenvalues --  -19.65098 -19.64209 -10.58865 -10.58491 -10.57823
 Alpha  occ. eigenvalues --   -1.18559  -1.17592  -0.85975  -0.77403  -0.69784
 Alpha  occ. eigenvalues --   -0.60827  -0.58814  -0.53963  -0.51710  -0.49409
 Alpha  occ. eigenvalues --   -0.47423  -0.44462  -0.41989  -0.36990  -0.27380
 Alpha virt. eigenvalues --    0.06386   0.07201   0.08187   0.11006   0.13117
 Alpha virt. eigenvalues --    0.14216   0.14715   0.17501   0.24219   0.27479
 Alpha virt. eigenvalues --    0.28751   0.29242   0.32968   0.35002   0.36071

 Mulliken charges:
               1
     1  O   -0.256734
     2  O   -0.337395
     3  C   -0.123730
     4  C   -0.079219
     5  C    0.007648
     6  H    0.111399
     7  H    0.084188
     8  H    0.078356
     9  H    0.100333
    10  H    0.164114
    11  H    0.251040
 Sum of Mulliken charges =  -0.00000

 Dipole moment (field-independent basis, Debye):
    X=             -0.9553    Y=              1.9161    Z=              0.3050  Tot=              2.1627
 Quadrupole moment (field-independent basis, Debye-Ang):
   XX=            -30.0291   YY=            -27.3496   ZZ=            -32.1262
   XY=              1.3573   XZ=             -2.1847   YZ=             -1.8516

  Exact polarizability:  61.403  -3.073  41.002   1.337  -3.078  33.111
 Approx polarizability:  64.275  -4.233  49.687   3.544  -3.338  40.699

                      1                      2                      3
                      A                      A                      A
 Frequencies --     87.9854               189.1818               209.3895
 Red. masses --      2.6010                 1.0974                 2.5187
 Frc consts  --      0.0119                 0.0231                 0.0651
 IR Inten    --      4.1579                 3.1366                10.1731

                      4                      5                      6
                      A                      A                      A
 Frequencies --    326.4705               394.9717               468.6593
 Red. masses --      1.7607                 2.0890                 3.6778
 Frc consts  --      0.1106                 0.1920                 0.4759
 IR Inten    --     33.7403                57.9100                 5.1024

                      7                      8                      9
                      A                      A                      A
 Frequencies --    558.0406               855.3194               954.6282
 Red. masses --      4.5119                 1.8119                 1.1508
 Frc consts  --      0.8278                 0.7810                 0.6179
 IR Inten    --     10.8998                19.1490                55.9242

                     10                     11                     12
                      A                      A                      A
 Frequencies --   1047.7765              1134.3422              1186.4561
 Red. masses --      3.5522                 2.3495                 1.3782
 Frc consts  --      2.2976                 1.7812                 1.1430
 IR Inten    --     25.5034               123.3987                50.6128

                     13                     14                     15
                      A                      A                      A
 Frequencies --   1192.1804              1266.0775              1287.9134
 Red. masses --      1.6037                 3.3192                 1.7978
 Frc consts  --      1.3429                 3.1347                 1.7570
 IR Inten    --     93.0764               241.3138                 3.9829

                     16                     17                     18
                      A                      A                      A
 Frequencies --   1325.4843              1384.7569              1484.3794
 Red. masses --      1.1977                 1.3211                 1.1756
 Frc consts  --      1.2397                 1.4926                 1.5262
 IR Inten    --      0.5634                90.0145                 2.8038

                     19                     20                     21
                      A                      A                      A
 Frequencies --   1498.7679              1514.6813              1786.0225
 Red. masses --      1.0449                 1.0478                 5.9430
 Frc consts  --      1.3829                 1.4163                11.1694
 IR Inten    --      7.2109                 8.8386                11.4861

                     22                     23                     24
                      A                      A                      A
 Frequencies --   3027.7622              3086.5735              3125.9299
 Red. masses --      1.0358                 1.1036                 1.0904
 Frc consts  --      5.5949                 6.1949                 6.2775
 IR Inten    --     52.9993                42.2804                31.2522

                     25                     26                     27
                      A                      A                      A
 Frequencies --   3160.4520              3237.7482              3869.2375
 Red. masses --      1.0996                 1.0935                 1.0656
 Frc consts  --      6.4714                 6.7537                 9.3991
 IR Inten    --     20.2663                 5.6076                47.3920

 - Thermochemistry -
 -------------------
 Temperature   298.150 Kelvin.  Pressure   1.00000 Atm.
 Atom     1 has atomic number  8 and mass  15.99491

 Molecular mass:    74.03678 amu.
 Principal axes and moments of inertia in atomic units:
                           1         2         3
     Eigenvalues --    71.43829 785.38897 808.93227
           X            0.99988  -0.00991  -0.01218
           Y            0.00754   0.98333  -0.18166
           Z            0.01378   0.18155   0.98329
 This molecule is an asymmetric top.
 Rotational symmetry number  1.
 Rotational temperatures (Kelvin)      1.21243     0.11028     0.10707
 Rotational constants (GHZ):          25.26294     2.29789     2.23102
 Zero-point vibrational energy     237226.6 (Joules/Mol)
                                   56.69851 (Kcal/Mol)
 Warning -- explicit consideration of   7 degrees of freedom as
           vibrations may cause significant error
 Vibrational temperatures:    126.59   272.19   301.26   469.72   568.28
          (Kelvin)            674.30   802.90  1230.61  1373.50  1507.52
                             1632.07  1707.05  1715.28  1821.60  1853.02
                             1907.08  1992.36  2135.69  2156.39  2179.29
                             2569.69  4356.27  4440.89  4497.52  4547.19
                             4658.40  5566.97

 Zero-point correction=                           0.090355 (Hartree/Particle)
 Thermal correction to Energy=                    0.096459
 Thermal correction to Enthalpy=                  0.097403
 Thermal correction to Gibbs Free Energy=         0.061150
 Sum of electronic and zero-point Energies=           -268.226792
 Sum of electronic and thermal Energies=              -268.220688
 Sum of electronic and thermal Enthalpies=            -268.219744
 Sum of electronic and thermal Free Energies=         -268.255996

                     E (Thermal)             CV                S
                      KCal/Mol        Cal/Mol-Kelvin    Cal/Mol-Kelvin
 Total                   60.529             19.962             76.299
 Electronic               0.000              0.000              0.000
 Translational            0.889              2.981             38.822
 Rotational               0.889              2.981             25.321
 Vibrational             58.751             14.001             12.157
 Vibration     1          0.601              1.958              3.704
 Vibration     2          0.633              1.855              2.236
 Vibration     3          0.642              1.826              2.049
 Vibration     4          0.710              1.623              1.277
 Vibration     5          0.762              1.481              0.981
 Vibration     6          0.826              1.320              0.741
 Vibration     7          0.914              1.122              0.528

 Optimization completed.
    -- Stationary point found.
 Normal termination of Gaussian 16 at Tue Sep 24 19:57:08 2019.
