 Gaussian 16, Revision A.03,
 Gaussian 16:  EM64L-G16RevA.03 25-Dec-2016

 ----------------------------------------------------------------------
 #p m062x/cc-pVTZ opt=(calcfc,maxcycles=900,Tight) freq IOP(7/33=1,2/16
 =3) scf=(maxcycle=900)
 ----------------------------------------------------------------------

 ------------------------------
 Gaussian input prepared by ASE
 ------------------------------
 Symbolic Z-matrix:
 Charge =  0 Multiplicity = 1

 SCF Done:  E(RM062X) =  -268.309606685     A.U. after   13 cycles
 SCF Done:  E(RM062X) =  -268.317556554     A.U. after   13 cycles
 SCF Done:  E(RM062X) =  -268.316973523     A.U. after   12 cycles
 SCF Done:  E(RM062X) =  -268.319764785     A.U. after   12 cycles
 SCF Done:  E(RM062X) =  -268.321671762     A.U. after   13 cycles
 SCF Done:  E(RM062X) =  -268.321182368     A.U. after   11 cycles
 SCF Done:  E(RM062X) =  -268.322894614     A.U. after   12 cycles
 SCF Done:  E(RM062X) =  -268.323247340     A.U. after   11 cycles
 SCF Done:  E(RM062X) =  -268.323528598     A.U. after   11 cycles
 SCF Done:  E(RM062X) =  -268.323818411     A.U. after   11 cycles
 SCF Done:  E(RM062X) =  -268.324018552     A.U. after   11 cycles
 SCF Done:  E(RM062X) =  -268.324122672     A.U. after   10 cycles
 SCF Done:  E(RM062X) =  -268.324168353     A.U. after   10 cycles
 SCF Done:  E(RM062X) =  -268.324182656     A.U. after   10 cycles
 SCF Done:  E(RM062X) =  -268.324186318     A.U. after   10 cycles
 SCF Done:  E(RM062X) =  -268.324186357     A.U. after    7 cycles
 SCF Done:  E(RM062X) =  -268.324186358     A.U. after    4 cycles
 Optimization completed.
    -- Stationary point found.
 Normal termination of Gaussian 16 at Tue Sep 24 16:25:25 2019.

 ----------------------------------------------------------------------
 #P Geom=AllCheck Guess=TCheck SCRF=Check Test GenChk RM062X/CC-pVTZ Fr
 eq
 ----------------------------------------------------------------------

 Structure from the checkpoint file:  "/scratch/harms.n/gauss_scrdir/Gau-38721.chk"
 ------------------------------
 Gaussian input prepared by ASE
 ------------------------------
 Charge =  0 Multiplicity = 1

                         Standard orientation:
 ---------------------------------------------------------------------
 Center     Atomic      Atomic             Coordinates (Angstroms)
 Number     Number       Type             X           Y           Z
 ---------------------------------------------------------------------
      1          8           0       -0.799593   -0.289863   -0.394558
      2          8           0        1.881947   -0.695881    0.085838
      3          6           0       -2.064291   -0.195918    0.229786
      4          6           0        0.031429    0.766342   -0.112990
      5          6           0        1.321062    0.539159    0.093051
      6          1           0       -2.578215    0.719603   -0.076121
      7          1           0       -2.646562   -1.055949   -0.089728
      8          1           0       -1.965189   -0.202064    1.317787
      9          1           0       -0.400157    1.758598   -0.112232
     10          1           0        2.025337    1.338211    0.263336
     11          1           0        1.176748   -1.329947   -0.092360
 ---------------------------------------------------------------------

 SCF Done:  E(RM062X) =  -268.324186358     A.U. after    1 cycles

 The electronic state is 1-A.
 Alpha  occ. eigenvalues --  -19.65087 -19.64216 -10.59097 -10.58531 -10.57563
 Alpha  occ. eigenvalues --   -1.19407  -1.16694  -0.86004  -0.78171  -0.68481
 Alpha  occ. eigenvalues --   -0.61262  -0.59037  -0.54689  -0.51218  -0.49965
 Alpha  occ. eigenvalues --   -0.46956  -0.44054  -0.42217  -0.38448  -0.27047
 Alpha virt. eigenvalues --    0.06778   0.07854   0.09253   0.10363   0.13456
 Alpha virt. eigenvalues --    0.13939   0.15798   0.16070   0.21611   0.28538
 Alpha virt. eigenvalues --    0.29852   0.31059   0.32803   0.35064   0.36154

 Mulliken charges:
               1
     1  O   -0.282988
     2  O   -0.345157
     3  C   -0.125775
     4  C   -0.056030
     5  C   -0.007469
     6  H    0.087426
     7  H    0.111796
     8  H    0.090425
     9  H    0.112299
    10  H    0.150442
    11  H    0.265032
 Sum of Mulliken charges =  -0.00000

 Dipole moment (field-independent basis, Debye):
    X=             -2.0413    Y=              0.5954    Z=              0.5546  Tot=              2.1975
 Quadrupole moment (field-independent basis, Debye-Ang):
   XX=            -29.8757   YY=            -27.0911   ZZ=            -32.5253
   XY=              1.8061   XZ=             -0.8084   YZ=              0.2058

  Exact polarizability:  59.972  -0.414  41.844   1.151  -0.132  31.795
 Approx polarizability:  65.050  -2.294  49.137   2.430   0.348  39.306

                      1                      2                      3
                      A                      A                      A
 Frequencies --     69.3904               187.0382               231.0507
 Red. masses --      3.3052                 1.3315                 2.5748
 Frc consts  --      0.0094                 0.0274                 0.0810
 IR Inten    --      3.2969                 0.3344                 6.3040

                      4                      5                      6
                      A                      A                      A
 Frequencies --    358.4216               479.4144               586.0951
 Red. masses --      2.9423                 1.1816                 3.1571
 Frc consts  --      0.2227                 0.1600                 0.6390
 IR Inten    --      6.4090                90.2475                16.8886

                      7                      8                      9
                      A                      A                      A
 Frequencies --    745.3451               774.6650               919.0024
 Red. masses --      3.8774                 1.3399                 1.2745
 Frc consts  --      1.2691                 0.4737                 0.6342
 IR Inten    --     21.3290                37.6922                 5.9179

                     10                     11                     12
                      A                      A                      A
 Frequencies --   1009.3184              1116.8067              1178.1533
 Red. masses --      3.5632                 2.6546                 3.5676
 Frc consts  --      2.1387                 1.9508                 2.9176
 IR Inten    --     21.6900               105.1034               203.4900

                     13                     14                     15
                      A                      A                      A
 Frequencies --   1189.1871              1212.8003              1276.9414
 Red. masses --      1.2955                 1.1908                 1.6849
 Frc consts  --      1.0795                 1.0320                 1.6187
 IR Inten    --      4.1787                73.9285                66.6661

                     16                     17                     18
                      A                      A                      A
 Frequencies --   1371.2481              1418.0326              1492.3091
 Red. masses --      1.4864                 1.3584                 1.1965
 Frc consts  --      1.6467                 1.6094                 1.5700
 IR Inten    --      0.5138                95.4613                11.4250

                     19                     20                     21
                      A                      A                      A
 Frequencies --   1499.5373              1517.3804              1781.4404
 Red. masses --      1.0447                 1.0495                 6.2692
 Frc consts  --      1.3840                 1.4237                11.7221
 IR Inten    --      7.4371                11.0581                61.4675

                     22                     23                     24
                      A                      A                      A
 Frequencies --   3035.8062              3096.2730              3162.2568
 Red. masses --      1.0346                 1.1049                 1.1004
 Frc consts  --      5.6180                 6.2411                 6.4834
 IR Inten    --     53.7783                36.6882                18.0938

                     25                     26                     27
                      A                      A                      A
 Frequencies --   3205.6071              3258.4790              3828.7292
 Red. masses --      1.0901                 1.0982                 1.0647
 Frc consts  --      6.6000                 6.8703                 9.1954
 IR Inten    --      7.0099                 7.2799                58.8455

 - Thermochemistry -
 -------------------
 Temperature   298.150 Kelvin.  Pressure   1.00000 Atm.
 Atom     1 has atomic number  8 and mass  15.99491

 Molecular mass:    74.03678 amu.
 Principal axes and moments of inertia in atomic units:
                           1         2         3
     Eigenvalues --   120.52591 597.82352 680.38910
           X            0.99986   0.01265  -0.01108
           Y           -0.01263   0.99992   0.00226
           Z            0.01111  -0.00212   0.99994
 This molecule is an asymmetric top.
 Rotational symmetry number  1.
 Rotational temperatures (Kelvin)      0.71863     0.14488     0.12730
 Rotational constants (GHZ):          14.97389     3.01885     2.65251
 Zero-point vibrational energy     239257.5 (Joules/Mol)
                                   57.18391 (Kcal/Mol)
 Warning -- explicit consideration of   6 degrees of freedom as
           vibrations may cause significant error
 Vibrational temperatures:     99.84   269.11   332.43   515.69   689.77
          (Kelvin)            843.26  1072.39  1114.57  1322.24  1452.18
                             1606.84  1695.10  1710.97  1744.95  1837.23
                             1972.92  2040.23  2147.10  2157.50  2183.17
                             2563.10  4367.85  4454.85  4549.78  4612.15
                             4688.22  5508.69

 Zero-point correction=                           0.091128 (Hartree/Particle)
 Thermal correction to Energy=                    0.096997
 Thermal correction to Enthalpy=                  0.097941
 Thermal correction to Gibbs Free Energy=         0.061912
 Sum of electronic and zero-point Energies=           -268.233058
 Sum of electronic and thermal Energies=              -268.227190
 Sum of electronic and thermal Enthalpies=            -268.226246
 Sum of electronic and thermal Free Energies=         -268.262274

                     E (Thermal)             CV                S
                      KCal/Mol        Cal/Mol-Kelvin    Cal/Mol-Kelvin
 Total                   60.866             19.297             75.829
 Electronic               0.000              0.000              0.000
 Translational            0.889              2.981             38.822
 Rotational               0.889              2.981             25.397
 Vibrational             59.089             13.335             11.610
 Vibration     1          0.598              1.969              4.171
 Vibration     2          0.632              1.858              2.257
 Vibration     3          0.653              1.794              1.871
 Vibration     4          0.733              1.558              1.129
 Vibration     5          0.836              1.296              0.712
 Vibration     6          0.943              1.061              0.474

                           ! Non-Optimized Parameters !
 Normal termination of Gaussian 16 at Tue Sep 24 16:55:05 2019.
