 Gaussian 16, Revision A.03,
 Gaussian 16:  EM64L-G16RevA.03 25-Dec-2016

 ----------------------------------------------------------------------
 #p m062x/cc-pVTZ opt=(calcfc,maxcycles=900,Tight) freq IOP(7/33=1,2/16
 =3) scf=(maxcycle=900)
 ----------------------------------------------------------------------

 ------------------------------
 Gaussian input prepared by ASE
 ------------------------------
 Symbolic Z-matrix:
 Charge =  0 Multiplicity = 1

 SCF Done:  E(RM062X) =  -268.303439072     A.U. after   13 cycles
 SCF Done:  E(RM062X) =  -268.315111407     A.U. after   13 cycles
 SCF Done:  E(RM062X) =  -268.306041137     A.U. after   12 cycles
 SCF Done:  E(RM062X) =  -268.313780067     A.U. after   14 cycles
 SCF Done:  E(RM062X) =  -268.315368341     A.U. after   11 cycles
 SCF Done:  E(RM062X) =  -268.315773566     A.U. after   11 cycles
 SCF Done:  E(RM062X) =  -268.315876449     A.U. after   10 cycles
 SCF Done:  E(RM062X) =  -268.315949355     A.U. after   10 cycles
 SCF Done:  E(RM062X) =  -268.316318523     A.U. after   12 cycles
 SCF Done:  E(RM062X) =  -268.316192137     A.U. after   13 cycles
 SCF Done:  E(RM062X) =  -268.324186361     A.U. after    5 cycles
 SCF Done:  E(RM062X) =  -268.324186359     A.U. after    4 cycles
 SCF Done:  E(RM062X) =  -268.324186363     A.U. after    4 cycles
 SCF Done:  E(RM062X) =  -268.324186364     A.U. after    3 cycles
 SCF Done:  E(RM062X) =  -268.324186360     A.U. after    5 cycles
 SCF Done:  E(RM062X) =  -268.324186363     A.U. after    4 cycles
 SCF Done:  E(RM062X) =  -268.324186362     A.U. after    3 cycles
 SCF Done:  E(RM062X) =  -268.324186360     A.U. after    5 cycles
 SCF Done:  E(RM062X) =  -268.324186362     A.U. after    4 cycles
 Optimization completed.
    -- Stationary point found.
 Normal termination of Gaussian 16 at Tue Sep 24 15:15:20 2019.

 ----------------------------------------------------------------------
 #P Geom=AllCheck Guess=TCheck SCRF=Check Test GenChk RM062X/CC-pVTZ Fr
 eq
 ----------------------------------------------------------------------

 Structure from the checkpoint file:  "/scratch/harms.n/gauss_scrdir/Gau-30869.chk"
 ------------------------------
 Gaussian input prepared by ASE
 ------------------------------
 Charge =  0 Multiplicity = 1

                         Standard orientation:
 ---------------------------------------------------------------------
 Center     Atomic      Atomic             Coordinates (Angstroms)
 Number     Number       Type             X           Y           Z
 ---------------------------------------------------------------------
      1          8           0       -0.799609   -0.289785    0.394667
      2          8           0        1.881897   -0.695916   -0.085844
      3          6           0       -2.064235   -0.195960   -0.229846
      4          6           0        0.031436    0.766378    0.113003
      5          6           0        1.321052    0.539142   -0.093087
      6          1           0       -2.578104    0.719726    0.075659
      7          1           0       -1.965018   -0.202522   -1.317834
      8          1           0       -2.646620   -1.055814    0.089935
      9          1           0       -0.400119    1.758647    0.112225
     10          1           0        2.025348    1.338162   -0.263434
     11          1           0        1.176687   -1.329945    0.092449
 ---------------------------------------------------------------------

 SCF Done:  E(RM062X) =  -268.324186362     A.U. after    1 cycles

 The electronic state is 1-A.
 Alpha  occ. eigenvalues --  -19.65087 -19.64216 -10.59097 -10.58531 -10.57563
 Alpha  occ. eigenvalues --   -1.19407  -1.16694  -0.86004  -0.78171  -0.68481
 Alpha  occ. eigenvalues --   -0.61262  -0.59037  -0.54689  -0.51218  -0.49965
 Alpha  occ. eigenvalues --   -0.46956  -0.44055  -0.42217  -0.38448  -0.27047
 Alpha virt. eigenvalues --    0.06778   0.07854   0.09253   0.10363   0.13455
 Alpha virt. eigenvalues --    0.13939   0.15798   0.16070   0.21611   0.28538
 Alpha virt. eigenvalues --    0.29850   0.31059   0.32804   0.35064   0.36155

 Mulliken charges:
               1
     1  O   -0.282993
     2  O   -0.345156
     3  C   -0.125764
     4  C   -0.056039
     5  C   -0.007462
     6  H    0.087419
     7  H    0.090426
     8  H    0.111795
     9  H    0.112298
    10  H    0.150443
    11  H    0.265032
 Sum of Mulliken charges =  -0.00000

 Dipole moment (field-independent basis, Debye):
    X=             -2.0411    Y=              0.5953    Z=             -0.5547  Tot=              2.1973
 Quadrupole moment (field-independent basis, Debye-Ang):
   XX=            -29.8757   YY=            -27.0911   ZZ=            -32.5254
   XY=              1.8064   XZ=              0.8086   YZ=             -0.2062

  Exact polarizability:  59.971  -0.414  41.844  -1.151   0.132  31.795
 Approx polarizability:  65.049  -2.294  49.137  -2.430  -0.348  39.307

                      1                      2                      3
                      A                      A                      A
 Frequencies --     69.4144               187.0070               231.0501
 Red. masses --      3.3051                 1.3308                 2.5772
 Frc consts  --      0.0094                 0.0274                 0.0811
 IR Inten    --      3.2973                 0.3330                 6.3079

                      4                      5                      6
                      A                      A                      A
 Frequencies --    358.4186               479.4549               586.1085
 Red. masses --      2.9423                 1.1816                 3.1566
 Frc consts  --      0.2227                 0.1600                 0.6389
 IR Inten    --      6.4087                90.2373                16.8985

                      7                      8                      9
                      A                      A                      A
 Frequencies --    745.3499               774.6777               919.0126
 Red. masses --      3.8776                 1.3399                 1.2745
 Frc consts  --      1.2692                 0.4738                 0.6342
 IR Inten    --     21.3243                37.6951                 5.9199

                     10                     11                     12
                      A                      A                      A
 Frequencies --   1009.3144              1116.8075              1178.1489
 Red. masses --      3.5633                 2.6547                 3.5686
 Frc consts  --      2.1388                 1.9508                 2.9184
 IR Inten    --     21.6904               105.0770               203.5316

                     13                     14                     15
                      A                      A                      A
 Frequencies --   1189.1882              1212.8021              1276.9402
 Red. masses --      1.2954                 1.1908                 1.6849
 Frc consts  --      1.0793                 1.0320                 1.6187
 IR Inten    --      4.1472                73.9133                66.6664

                     16                     17                     18
                      A                      A                      A
 Frequencies --   1371.2534              1418.0321              1492.3096
 Red. masses --      1.4864                 1.3584                 1.1965
 Frc consts  --      1.6467                 1.6094                 1.5700
 IR Inten    --      0.5129                95.4509                11.4233

                     19                     20                     21
                      A                      A                      A
 Frequencies --   1499.5305              1517.3803              1781.4355
 Red. masses --      1.0447                 1.0495                 6.2692
 Frc consts  --      1.3840                 1.4237                11.7219
 IR Inten    --      7.4383                11.0571                61.4702

                     22                     23                     24
                      A                      A                      A
 Frequencies --   3035.8150              3096.2809              3162.2625
 Red. masses --      1.0346                 1.1049                 1.1004
 Frc consts  --      5.6180                 6.2411                 6.4834
 IR Inten    --     53.7724                36.6866                18.0956

                     25                     26                     27
                      A                      A                      A
 Frequencies --   3205.5992              3258.4731              3828.7080
 Red. masses --      1.0901                 1.0982                 1.0647
 Frc consts  --      6.5999                 6.8703                 9.1953
 IR Inten    --      7.0099                 7.2804                58.8445

 - Thermochemistry -
 -------------------
 Temperature   298.150 Kelvin.  Pressure   1.00000 Atm.
 Atom     1 has atomic number  8 and mass  15.99491

 Molecular mass:    74.03678 amu.
 Principal axes and moments of inertia in atomic units:
                           1         2         3
     Eigenvalues --   120.53573 597.80655 680.36787
           X            0.99986   0.01266   0.01109
           Y           -0.01263   0.99992  -0.00227
           Z           -0.01112   0.00213   0.99994
 This molecule is an asymmetric top.
 Rotational symmetry number  1.
 Rotational temperatures (Kelvin)      0.71857     0.14489     0.12730
 Rotational constants (GHZ):          14.97267     3.01894     2.65260
 Zero-point vibrational energy     239257.8 (Joules/Mol)
                                   57.18398 (Kcal/Mol)
 Warning -- explicit consideration of   6 degrees of freedom as
           vibrations may cause significant error
 Vibrational temperatures:     99.87   269.06   332.43   515.68   689.83
          (Kelvin)            843.28  1072.39  1114.59  1322.25  1452.18
                             1606.84  1695.09  1710.98  1744.95  1837.23
                             1972.93  2040.23  2147.10  2157.49  2183.17
                             2563.09  4367.86  4454.86  4549.79  4612.14
                             4688.22  5508.66

 Zero-point correction=                           0.091128 (Hartree/Particle)
 Thermal correction to Energy=                    0.096997
 Thermal correction to Enthalpy=                  0.097941
 Thermal correction to Gibbs Free Energy=         0.061912
 Sum of electronic and zero-point Energies=           -268.233058
 Sum of electronic and thermal Energies=              -268.227190
 Sum of electronic and thermal Enthalpies=            -268.226245
 Sum of electronic and thermal Free Energies=         -268.262274

                     E (Thermal)             CV                S
                      KCal/Mol        Cal/Mol-Kelvin    Cal/Mol-Kelvin
 Total                   60.866             19.297             75.828
 Electronic               0.000              0.000              0.000
 Translational            0.889              2.981             38.822
 Rotational               0.889              2.981             25.397
 Vibrational             59.089             13.335             11.609
 Vibration     1          0.598              1.969              4.170
 Vibration     2          0.632              1.858              2.257
 Vibration     3          0.653              1.794              1.871
 Vibration     4          0.733              1.558              1.129
 Vibration     5          0.836              1.296              0.712
 Vibration     6          0.943              1.061              0.474

                           ! Non-Optimized Parameters !
 Normal termination of Gaussian 16 at Tue Sep 24 15:48:59 2019.
