 Gaussian 16, Revision A.03,
 Gaussian 16:  EM64L-G16RevA.03 25-Dec-2016

 ----------------------------------------------------------------------
 #p m062x/cc-pVTZ opt=(calcfc,maxcycles=900,Tight) freq IOP(7/33=1,2/16
 =3) scf=(maxcycle=900)
 ----------------------------------------------------------------------

 ------------------------------
 Gaussian input prepared by ASE
 ------------------------------
 Symbolic Z-matrix:
 Charge =  0 Multiplicity = 1

 SCF Done:  E(RM062X) =  -276.318365584     A.U. after   11 cycles
 SCF Done:  E(RM062X) =  -276.330662302     A.U. after   10 cycles
 SCF Done:  E(RM062X) =  -276.333460714     A.U. after   11 cycles
 SCF Done:  E(RM062X) =  -276.335181684     A.U. after   11 cycles
 SCF Done:  E(RM062X) =  -276.335514112     A.U. after    9 cycles
 SCF Done:  E(RM062X) =  -276.335616123     A.U. after    9 cycles
 SCF Done:  E(RM062X) =  -276.335680657     A.U. after    9 cycles
 SCF Done:  E(RM062X) =  -276.335701081     A.U. after   10 cycles
 SCF Done:  E(RM062X) =  -276.335836857     A.U. after    9 cycles
 SCF Done:  E(RM062X) =  -276.336182438     A.U. after    9 cycles
 SCF Done:  E(RM062X) =  -276.336613163     A.U. after    8 cycles
 SCF Done:  E(RM062X) =  -276.336626081     A.U. after    9 cycles
 SCF Done:  E(RM062X) =  -276.336627298     A.U. after    7 cycles
 SCF Done:  E(RM062X) =  -276.336627847     A.U. after    6 cycles
 SCF Done:  E(RM062X) =  -276.336627840     A.U. after    5 cycles
 SCF Done:  E(RM062X) =  -276.336627839     A.U. after    4 cycles
 SCF Done:  E(RM062X) =  -276.336627837     A.U. after    3 cycles
 SCF Done:  E(RM062X) =  -276.336627842     A.U. after    5 cycles
 SCF Done:  E(RM062X) =  -276.336627839     A.U. after    4 cycles
 Optimization completed on the basis of negligible forces.
    -- Stationary point found.
 Normal termination of Gaussian 16 at Sat Sep 28 14:23:35 2019.

 ----------------------------------------------------------------------
 #P Geom=AllCheck Guess=TCheck SCRF=Check Test GenChk RM062X/CC-pVTZ Fr
 eq
 ----------------------------------------------------------------------

 Structure from the checkpoint file:  "/scratch/harms.n/gauss_scrdir/Gau-14555.chk"
 ------------------------------
 Gaussian input prepared by ASE
 ------------------------------
 Charge =  0 Multiplicity = 1

                         Standard orientation:
 ---------------------------------------------------------------------
 Center     Atomic      Atomic             Coordinates (Angstroms)
 Number     Number       Type             X           Y           Z
 ---------------------------------------------------------------------
      1          6           0       -1.497646   -1.087468   -0.078316
      2          6           0       -0.022869   -0.899279   -0.463313
      3          6           0        0.877859   -0.530026    0.714491
      4          6           0       -2.371366    0.139903   -0.338471
      5          6           0        2.332497   -0.278856    0.324314
      6          6           0       -1.914102    1.398313    0.390172
      7          6           0        2.522551    0.968605   -0.532843
      8          1           0       -3.399516   -0.089904   -0.051324
      9          1           0       -2.389061    0.335466   -1.414067
     10          1           0       -1.561183   -1.357438    0.980539
     11          1           0       -1.918644   -1.927862   -0.632446
     12          1           0        0.045009   -0.135751   -1.243290
     13          1           0        0.366701   -1.818713   -0.907109
     14          1           0        0.834308   -1.343019    1.443950
     15          1           0        0.484993    0.355075    1.221898
     16          1           0        2.931669   -0.181607    1.231703
     17          1           0        2.718732   -1.152687   -0.207745
     18          1           0       -1.859946    1.228504    1.467118
     19          1           0       -0.926212    1.715492    0.053269
     20          1           0       -2.602419    2.224671    0.214781
     21          1           0        2.111799    1.846268   -0.029781
     22          1           0        2.024366    0.875653   -1.497453
     23          1           0        3.577864    1.158705   -0.726255
 ---------------------------------------------------------------------

 SCF Done:  E(RM062X) =  -276.336627839     A.U. after    1 cycles

 The electronic state is 1-A.
 Alpha  occ. eigenvalues --  -10.52659 -10.52613 -10.52450 -10.52405 -10.52355
 Alpha  occ. eigenvalues --  -10.51947 -10.51931  -0.91180  -0.87633  -0.82052
 Alpha  occ. eigenvalues --   -0.76684  -0.71298  -0.65382  -0.64277  -0.54552
 Alpha  occ. eigenvalues --   -0.52262  -0.51371  -0.50574  -0.47148  -0.46412
 Alpha  occ. eigenvalues --   -0.44246  -0.43070  -0.42124  -0.41015  -0.39185
 Alpha  occ. eigenvalues --   -0.38524  -0.37233  -0.36580  -0.35831
 Alpha virt. eigenvalues --    0.06834   0.08008   0.08843   0.09194   0.11913
 Alpha virt. eigenvalues --    0.12145   0.12983   0.13523   0.13660   0.14866
 Alpha virt. eigenvalues --    0.15591   0.16542   0.17427   0.18115   0.19378

 Mulliken charges:
               1
     1  C   -0.264844
     2  C   -0.298242
     3  C   -0.292308
     4  C   -0.228233
     5  C   -0.235027
     6  C   -0.388979
     7  C   -0.378599
     8  H    0.125945
     9  H    0.125797
    10  H    0.133594
    11  H    0.132201
    12  H    0.147820
    13  H    0.141849
    14  H    0.139352
    15  H    0.158228
    16  H    0.127027
    17  H    0.123544
    18  H    0.124328
    19  H    0.120223
    20  H    0.123354
    21  H    0.118257
    22  H    0.122016
    23  H    0.122697
 Sum of Mulliken charges =  -0.00000

 Dipole moment (field-independent basis, Debye):
    X=             -0.0292    Y=             -0.0974    Z=             -0.0028  Tot=              0.1017
 Quadrupole moment (field-independent basis, Debye-Ang):
   XX=            -48.6562   YY=            -48.9985   ZZ=            -48.7569
   XY=             -0.1557   XZ=              0.1392   YZ=              0.1006

  Exact polarizability:  94.922   0.435  82.634   0.284  -0.096  76.261
 Approx polarizability:  98.218  -0.100  97.140  -0.191  -0.091  96.999

                      1                      2                      3
                      A                      A                      A
 Frequencies --     31.7965                91.1992               134.6766
 Red. masses --      2.4804                 2.1453                 1.7376
 Frc consts  --      0.0015                 0.0105                 0.0186
 IR Inten    --      0.0034                 0.0223                 0.0675

                      4                      5                      6
                      A                      A                      A
 Frequencies --    139.7373               225.4316               277.2036
 Red. masses --      1.7924                 1.7266                 1.6814
 Frc consts  --      0.0206                 0.0517                 0.0761
 IR Inten    --      0.0132                 0.0467                 0.0867

                      7                      8                      9
                      A                      A                      A
 Frequencies --    285.3223               316.0851               341.4749
 Red. masses --      1.4123                 1.3204                 2.4123
 Frc consts  --      0.0677                 0.0777                 0.1657
 IR Inten    --      0.0297                 0.0608                 0.1112

                     10                     11                     12
                      A                      A                      A
 Frequencies --    418.3872               502.7585               735.2752
 Red. masses --      2.0211                 1.9338                 1.1800
 Frc consts  --      0.2085                 0.2880                 0.3759
 IR Inten    --      0.0463                 0.3333                 3.1581

                     13                     14                     15
                      A                      A                      A
 Frequencies --    762.1255               786.4297               839.7267
 Red. masses --      1.3415                 1.2509                 1.6399
 Frc consts  --      0.4591                 0.4558                 0.6813
 IR Inten    --      1.4724                 2.6949                 2.0321

                     16                     17                     18
                      A                      A                      A
 Frequencies --    869.7982               912.1594               951.9647
 Red. masses --      1.9852                 1.6576                 1.5972
 Frc consts  --      0.8849                 0.8126                 0.8528
 IR Inten    --      0.6293                 0.7433                 0.9958

                     19                     20                     21
                      A                      A                      A
 Frequencies --    960.3596              1017.4530              1063.4987
 Red. masses --      1.5998                 1.7957                 1.5239
 Frc consts  --      0.8693                 1.0952                 1.0155
 IR Inten    --      0.9802                 1.8408                 0.9961

                     22                     23                     24
                      A                      A                      A
 Frequencies --   1073.7953              1097.4820              1120.7337
 Red. masses --      1.3452                 2.2448                 1.9613
 Frc consts  --      0.9138                 1.5930                 1.4515
 IR Inten    --      0.6280                 0.7260                 0.0329

                     25                     26                     27
                      A                      A                      A
 Frequencies --   1159.3771              1170.6415              1236.7742
 Red. masses --      1.9658                 2.0344                 1.4026
 Frc consts  --      1.5568                 1.6426                 1.2641
 IR Inten    --      0.9364                 0.6909                 0.4586

                     28                     29                     30
                      A                      A                      A
 Frequencies --   1256.2655              1300.0050              1309.1919
 Red. masses --      1.3282                 1.2367                 1.2059
 Frc consts  --      1.2351                 1.2314                 1.2178
 IR Inten    --      0.4511                 1.3502                 0.1659

                     31                     32                     33
                      A                      A                      A
 Frequencies --   1332.6292              1341.1192              1376.6595
 Red. masses --      1.1172                 1.2230                 1.4130
 Frc consts  --      1.1689                 1.2960                 1.5777
 IR Inten    --      0.4623                 0.5987                 3.9586

                     34                     35                     36
                      A                      A                      A
 Frequencies --   1380.5912              1383.1301              1401.6492
 Red. masses --      1.3254                 1.4689                 1.5713
 Frc consts  --      1.4884                 1.6556                 1.8188
 IR Inten    --      0.3792                 0.2520                 0.8469

                     37                     38                     39
                      A                      A                      A
 Frequencies --   1416.0908              1417.1343              1486.2729
 Red. masses --      1.3031                 1.3074                 1.0742
 Frc consts  --      1.5396                 1.5470                 1.3980
 IR Inten    --      3.8845                 7.1021                 0.3937

                     40                     41                     42
                      A                      A                      A
 Frequencies --   1490.3024              1491.6334              1494.3547
 Red. masses --      1.0694                 1.0628                 1.0755
 Frc consts  --      1.3994                 1.3932                 1.4150
 IR Inten    --      1.4995                 1.7260                 0.9514

                     43                     44                     45
                      A                      A                      A
 Frequencies --   1503.6381              1506.3766              1508.3134
 Red. masses --      1.0614                 1.0855                 1.0621
 Frc consts  --      1.4139                 1.4513                 1.4237
 IR Inten    --      1.1638                10.5650                 5.0548

                     46                     47                     48
                      A                      A                      A
 Frequencies --   1513.1221              1517.8247              3041.3101
 Red. masses --      1.0587                 1.0599                 1.0675
 Frc consts  --      1.4282                 1.4387                 5.8176
 IR Inten    --     14.4106                 7.4309                11.6010

                     49                     50                     51
                      A                      A                      A
 Frequencies --   3044.6041              3048.4975              3049.1428
 Red. masses --      1.0594                 1.0610                 1.0641
 Frc consts  --      5.7858                 5.8095                 5.8287
 IR Inten    --      1.6418                16.2703                26.9365

                     52                     53                     54
                      A                      A                      A
 Frequencies --   3053.9762              3056.9063              3059.0076
 Red. masses --      1.0582                 1.0411                 1.0398
 Frc consts  --      5.8151                 5.7317                 5.7327
 IR Inten    --     31.7106                26.6910                22.9837

                     55                     56                     57
                      A                      A                      A
 Frequencies --   3074.6407              3085.5843              3087.4619
 Red. masses --      1.0977                 1.0981                 1.0987
 Frc consts  --      6.1140                 6.1596                 6.1708
 IR Inten    --      1.7996                25.2596                25.9728

                     58                     59                     60
                      A                      A                      A
 Frequencies --   3093.5359              3100.4952              3125.4266
 Red. masses --      1.1001                 1.1021                 1.1020
 Frc consts  --      6.2026                 6.2420                 6.3425
 IR Inten    --     23.5238                80.4540                41.3547

                     61                     62                     63
                      A                      A                      A
 Frequencies --   3125.7439              3131.2723              3137.0504
 Red. masses --      1.1003                 1.1013                 1.1015
 Frc consts  --      6.3337                 6.3622                 6.3869
 IR Inten    --     35.8844                31.9697                35.5303

 - Thermochemistry -
 -------------------
 Temperature   298.150 Kelvin.  Pressure   1.00000 Atm.
 Atom     1 has atomic number  6 and mass  12.00000

 Molecular mass:   100.12520 amu.
 Principal axes and moments of inertia in atomic units:
                           1         2         3
     Eigenvalues --   439.826361411.740441618.68130
           X            0.99999   0.00071  -0.00403
           Y           -0.00071   1.00000  -0.00156
           Z            0.00403   0.00156   0.99999
 This molecule is an asymmetric top.
 Rotational symmetry number  1.
 Warning -- assumption of classical behavior for rotation
           may cause significant error
 Rotational temperatures (Kelvin)      0.19693     0.06135     0.05351
 Rotational constants (GHZ):           4.10330     1.27838     1.11495
 Zero-point vibrational energy     575778.4 (Joules/Mol)
                                  137.61433 (Kcal/Mol)
 Warning -- explicit consideration of  11 degrees of freedom as
           vibrations may cause significant error
 Vibrational temperatures:     45.75   131.22   193.77   201.05   324.35
          (Kelvin)            398.83   410.52   454.78   491.31   601.97
                              723.36  1057.90  1096.53  1131.50  1208.18
                             1251.45  1312.39  1369.66  1381.74  1463.89
                             1530.14  1544.95  1579.03  1612.49  1668.09
                             1684.29  1779.44  1807.49  1870.42  1883.64
                             1917.36  1929.57  1980.71  1986.36  1990.02
                             2016.66  2037.44  2038.94  2138.42  2144.21
                             2146.13  2150.04  2163.40  2167.34  2170.13
                             2177.05  2183.81  4375.77  4380.51  4386.11
                             4387.04  4393.99  4398.21  4401.23  4423.72
                             4439.47  4442.17  4450.91  4460.92  4496.79
                             4497.25  4505.20  4513.52

 Zero-point correction=                           0.219302 (Hartree/Particle)
 Thermal correction to Energy=                    0.228662
 Thermal correction to Enthalpy=                  0.229606
 Thermal correction to Gibbs Free Energy=         0.184729
 Sum of electronic and zero-point Energies=           -276.117325
 Sum of electronic and thermal Energies=              -276.107966
 Sum of electronic and thermal Enthalpies=            -276.107021
 Sum of electronic and thermal Free Energies=         -276.151899

                     E (Thermal)             CV                S
                      KCal/Mol        Cal/Mol-Kelvin    Cal/Mol-Kelvin
 Total                  143.488             33.684             94.452
 Electronic               0.000              0.000              0.000
 Translational            0.889              2.981             39.722
 Rotational               0.889              2.981             28.399
 Vibrational            141.710             27.723             26.331
 Vibration     1          0.594              1.983              5.714
 Vibration     2          0.602              1.955              3.634
 Vibration     3          0.613              1.919              2.878
 Vibration     4          0.615              1.914              2.807
 Vibration     5          0.650              1.802              1.915
 Vibration     6          0.678              1.716              1.551
 Vibration     7          0.683              1.701              1.502
 Vibration     8          0.703              1.643              1.330
 Vibration     9          0.721              1.593              1.205
 Vibration    10          0.781              1.430              0.897
 Vibration    11          0.858              1.244              0.651

 Optimization completed on the basis of negligible forces.
    -- Stationary point found.
 Normal termination of Gaussian 16 at Sat Sep 28 18:10:33 2019.
