 Gaussian 16, Revision A.03,
 Gaussian 16:  EM64L-G16RevA.03 25-Dec-2016

 ----------------------------------------------------------------------
 #p m062x/cc-pVTZ opt=(calcfc,maxcycles=900,Tight) freq IOP(7/33=1,2/16
 =3) scf=(maxcycle=900)
 ----------------------------------------------------------------------

 ------------------------------
 Gaussian input prepared by ASE
 ------------------------------
 Symbolic Z-matrix:
 Charge =  0 Multiplicity = 1

 SCF Done:  E(RM062X) =  -276.304665457     A.U. after   11 cycles
 SCF Done:  E(RM062X) =  -276.321573152     A.U. after   11 cycles
 SCF Done:  E(RM062X) =  -276.328129094     A.U. after   10 cycles
 SCF Done:  E(RM062X) =  -276.331859450     A.U. after   12 cycles
 SCF Done:  E(RM062X) =  -276.333492371     A.U. after   11 cycles
 SCF Done:  E(RM062X) =  -276.335594055     A.U. after    9 cycles
 SCF Done:  E(RM062X) =  -276.337740001     A.U. after   12 cycles
 SCF Done:  E(RM062X) =  -276.339043417     A.U. after   10 cycles
 SCF Done:  E(RM062X) =  -276.339451336     A.U. after    9 cycles
 SCF Done:  E(RM062X) =  -276.339718834     A.U. after   10 cycles
 SCF Done:  E(RM062X) =  -276.340023166     A.U. after    6 cycles
 SCF Done:  E(RM062X) =  -276.340026314     A.U. after    6 cycles
 SCF Done:  E(RM062X) =  -276.340029588     A.U. after    6 cycles
 SCF Done:  E(RM062X) =  -276.340031042     A.U. after    6 cycles
 SCF Done:  E(RM062X) =  -276.340031242     A.U. after    5 cycles
 SCF Done:  E(RM062X) =  -276.340031291     A.U. after    5 cycles
 SCF Done:  E(RM062X) =  -276.340031297     A.U. after    4 cycles
 SCF Done:  E(RM062X) =  -276.340031295     A.U. after    4 cycles
 SCF Done:  E(RM062X) =  -276.340031296     A.U. after    3 cycles
 Optimization completed.
    -- Stationary point found.
 Normal termination of Gaussian 16 at Sun Sep 29 08:33:26 2019.

 ----------------------------------------------------------------------
 #P Geom=AllCheck Guess=TCheck SCRF=Check Test GenChk RM062X/CC-pVTZ Fr
 eq
 ----------------------------------------------------------------------

 Structure from the checkpoint file:  "/scratch/harms.n/gauss_scrdir/Gau-38214.chk"
 ------------------------------
 Gaussian input prepared by ASE
 ------------------------------
 Charge =  0 Multiplicity = 1

                         Standard orientation:
 ---------------------------------------------------------------------
 Center     Atomic      Atomic             Coordinates (Angstroms)
 Number     Number       Type             X           Y           Z
 ---------------------------------------------------------------------
      1          6           0        1.166774    0.824221   -0.732119
      2          6           0        0.309708    1.216386    0.473757
      3          6           0       -0.852657    0.266988    0.758698
      4          6           0        1.717429   -0.600431   -0.677850
      5          6           0       -1.822097    0.108161   -0.407710
      6          6           0        2.564252   -0.871313    0.560795
      7          6           0       -3.027830   -0.748767   -0.043447
      8          1           0        2.317795   -0.777407   -1.572168
      9          1           0        0.893291   -1.317269   -0.720098
     10          1           0        2.004103    1.523276   -0.806106
     11          1           0        0.585492    0.948034   -1.648500
     12          1           0       -0.087169    2.221217    0.307167
     13          1           0        0.941419    1.283654    1.362249
     14          1           0       -1.404618    0.634995    1.627723
     15          1           0       -0.470285   -0.718849    1.041125
     16          1           0       -2.154634    1.097643   -0.734510
     17          1           0       -1.304759   -0.338115   -1.260116
     18          1           0        3.368991   -0.138611    0.646681
     19          1           0        1.968639   -0.815018    1.472492
     20          1           0        3.015854   -1.862062    0.522907
     21          1           0       -3.584727   -0.303943    0.782507
     22          1           0       -2.712505   -1.745057    0.270746
     23          1           0       -3.710366   -0.863962   -0.884840
 ---------------------------------------------------------------------

 SCF Done:  E(RM062X) =  -276.340031296     A.U. after    1 cycles

 The electronic state is 1-A.
 Alpha  occ. eigenvalues --  -10.52631 -10.52630 -10.52444 -10.52415 -10.52383
 Alpha  occ. eigenvalues --  -10.51966 -10.51960  -0.91436  -0.87431  -0.82255
 Alpha  occ. eigenvalues --   -0.76539  -0.71276  -0.66997  -0.62294  -0.55295
 Alpha  occ. eigenvalues --   -0.53157  -0.51120  -0.49271  -0.48004  -0.45925
 Alpha  occ. eigenvalues --   -0.44997  -0.42759  -0.42301  -0.40170  -0.39726
 Alpha  occ. eigenvalues --   -0.38920  -0.36866  -0.36587  -0.36181
 Alpha virt. eigenvalues --    0.06457   0.08060   0.08723   0.09211   0.11550
 Alpha virt. eigenvalues --    0.12283   0.12592   0.14667   0.15125   0.15378
 Alpha virt. eigenvalues --    0.15686   0.17194   0.17294   0.17877   0.19278

 Mulliken charges:
               1
     1  C   -0.307006
     2  C   -0.317510
     3  C   -0.281477
     4  C   -0.257662
     5  C   -0.246689
     6  C   -0.370201
     7  C   -0.354044
     8  H    0.135473
     9  H    0.137381
    10  H    0.149623
    11  H    0.154656
    12  H    0.149465
    13  H    0.156110
    14  H    0.143790
    15  H    0.146808
    16  H    0.133062
    17  H    0.133702
    18  H    0.120683
    19  H    0.120014
    20  H    0.119615
    21  H    0.110060
    22  H    0.110120
    23  H    0.114029
 Sum of Mulliken charges =  -0.00000

 Dipole moment (field-independent basis, Debye):
    X=              0.0215    Y=              0.0444    Z=             -0.0804  Tot=              0.0943
 Quadrupole moment (field-independent basis, Debye-Ang):
   XX=            -49.0408   YY=            -48.7348   ZZ=            -48.9881
   XY=             -0.3623   XZ=             -0.1391   YZ=              0.2210

  Exact polarizability:  95.363   0.463  80.080   0.387  -0.303  78.103
 Approx polarizability:  98.185   0.031  97.232   0.091  -0.188  96.760

                      1                      2                      3
                      A                      A                      A
 Frequencies --     64.0209               101.6137               112.6765
 Red. masses --      2.8332                 1.7354                 2.0788
 Frc consts  --      0.0068                 0.0106                 0.0155
 IR Inten    --      0.0054                 0.0090                 0.0021

                      4                      5                      6
                      A                      A                      A
 Frequencies --    187.9409               216.9142               254.0787
 Red. masses --      2.1859                 1.3420                 1.1600
 Frc consts  --      0.0455                 0.0372                 0.0441
 IR Inten    --      0.0343                 0.0148                 0.0027

                      7                      8                      9
                      A                      A                      A
 Frequencies --    286.1222               314.3275               362.7726
 Red. masses --      2.0621                 1.6391                 2.1458
 Frc consts  --      0.0995                 0.0954                 0.1664
 IR Inten    --      0.0571                 0.0502                 0.1231

                     10                     11                     12
                      A                      A                      A
 Frequencies --    433.7934               533.8630               717.3303
 Red. masses --      2.0074                 2.3358                 1.1810
 Frc consts  --      0.2226                 0.3922                 0.3581
 IR Inten    --      0.2343                 0.1577                 8.8834

                     13                     14                     15
                      A                      A                      A
 Frequencies --    750.9532               796.2112               841.6964
 Red. masses --      1.1623                 1.4756                 1.9511
 Frc consts  --      0.3862                 0.5512                 0.8144
 IR Inten    --      1.1777                 1.0188                 0.4400

                     16                     17                     18
                      A                      A                      A
 Frequencies --    879.3050               893.1737               950.5180
 Red. masses --      1.5933                 1.4654                 1.6215
 Frc consts  --      0.7258                 0.6888                 0.8632
 IR Inten    --      0.6378                 0.9708                 1.4726

                     19                     20                     21
                      A                      A                      A
 Frequencies --    962.9447              1029.8285              1055.0357
 Red. masses --      1.3833                 1.7726                 1.5152
 Frc consts  --      0.7558                 1.1076                 0.9937
 IR Inten    --      1.7386                 1.6186                 0.3526

                     22                     23                     24
                      A                      A                      A
 Frequencies --   1062.5551              1073.9653              1125.5017
 Red. masses --      1.3348                 2.1890                 1.9745
 Frc consts  --      0.8879                 1.4876                 1.4736
 IR Inten    --      0.6009                 0.0426                 0.1939

                     25                     26                     27
                      A                      A                      A
 Frequencies --   1163.8528              1169.9944              1237.1948
 Red. masses --      2.2430                 1.8900                 1.4087
 Frc consts  --      1.7901                 1.5243                 1.2704
 IR Inten    --      0.4459                 0.3190                 0.3618

                     28                     29                     30
                      A                      A                      A
 Frequencies --   1254.3734              1293.8435              1317.5532
 Red. masses --      1.4039                 1.2399                 1.2695
 Frc consts  --      1.3015                 1.2229                 1.2984
 IR Inten    --      0.1117                 1.7588                 0.3598

                     31                     32                     33
                      A                      A                      A
 Frequencies --   1325.3021              1338.8406              1368.2072
 Red. masses --      1.1411                 1.1462                 1.3757
 Frc consts  --      1.1809                 1.2105                 1.5174
 IR Inten    --      1.2633                 1.3554                 2.8900

                     34                     35                     36
                      A                      A                      A
 Frequencies --   1385.8465              1398.6784              1409.2795
 Red. masses --      1.5568                 1.4220                 1.6016
 Frc consts  --      1.7616                 1.6390                 1.8741
 IR Inten    --      0.4389                 1.6094                 0.1846

                     37                     38                     39
                      A                      A                      A
 Frequencies --   1413.0763              1417.4673              1480.6076
 Red. masses --      1.2518                 1.3132                 1.0689
 Frc consts  --      1.4727                 1.5545                 1.3806
 IR Inten    --      2.6532                 6.7363                 0.7201

                     40                     41                     42
                      A                      A                      A
 Frequencies --   1492.0211              1495.0643              1501.5925
 Red. masses --      1.0752                 1.0593                 1.0739
 Frc consts  --      1.4102                 1.3951                 1.4267
 IR Inten    --      2.6503                 2.5196                 7.1108

                     43                     44                     45
                      A                      A                      A
 Frequencies --   1502.8741              1503.9190              1508.0097
 Red. masses --      1.0461                 1.0555                 1.0637
 Frc consts  --      1.3921                 1.4065                 1.4252
 IR Inten    --      8.4961                 4.5145                11.1615

                     46                     47                     48
                      A                      A                      A
 Frequencies --   1514.2592              1517.7370              3039.8816
 Red. masses --      1.0791                 1.0811                 1.0612
 Frc consts  --      1.4578                 1.4672                 5.7777
 IR Inten    --      2.5691                 3.1047                 5.7066

                     49                     50                     51
                      A                      A                      A
 Frequencies --   3047.4997              3050.9027              3053.9455
 Red. masses --      1.0641                 1.0599                 1.0587
 Frc consts  --      5.8228                 5.8127                 5.8174
 IR Inten    --     11.7693                18.4740                37.7338

                     52                     53                     54
                      A                      A                      A
 Frequencies --   3056.8526              3057.7343              3059.5551
 Red. masses --      1.0558                 1.0413                 1.0478
 Frc consts  --      5.8128                 5.7361                 5.7790
 IR Inten    --     23.7708                22.7957                23.7069

                     55                     56                     57
                      A                      A                      A
 Frequencies --   3071.3616              3080.3038              3089.3885
 Red. masses --      1.0931                 1.0997                 1.0988
 Frc consts  --      6.0751                 6.1479                 6.1789
 IR Inten    --     15.7228                 5.3675                33.7173

                     58                     59                     60
                      A                      A                      A
 Frequencies --   3094.1161              3098.9744              3124.6796
 Red. masses --      1.1035                 1.1012                 1.1026
 Frc consts  --      6.2244                 6.2310                 6.3427
 IR Inten    --     35.3829                62.5861                45.4444

                     61                     62                     63
                      A                      A                      A
 Frequencies --   3125.3323              3132.8356              3134.1179
 Red. masses --      1.1016                 1.1016                 1.1016
 Frc consts  --      6.3395                 6.3703                 6.3752
 IR Inten    --     39.5707                28.8347                32.9374

 - Thermochemistry -
 -------------------
 Temperature   298.150 Kelvin.  Pressure   1.00000 Atm.
 Atom     1 has atomic number  6 and mass  12.00000

 Molecular mass:   100.12520 amu.
 Principal axes and moments of inertia in atomic units:
                           1         2         3
     Eigenvalues --   412.871221482.714331567.31178
           X            0.99999   0.00178   0.00376
           Y           -0.00170   0.99978  -0.02078
           Z           -0.00379   0.02077   0.99978
 This molecule is an asymmetric top.
 Rotational symmetry number  1.
 Rotational temperatures (Kelvin)      0.20978     0.05842     0.05526
 Rotational constants (GHZ):           4.37120     1.21719     1.15149
 Zero-point vibrational energy     576206.6 (Joules/Mol)
                                  137.71668 (Kcal/Mol)
 Warning -- explicit consideration of  11 degrees of freedom as
           vibrations may cause significant error
 Vibrational temperatures:     92.11   146.20   162.12   270.40   312.09
          (Kelvin)            365.56   411.67   452.25   521.95   624.13
                              768.11  1032.08  1080.45  1145.57  1211.01
                             1265.12  1285.08  1367.58  1385.46  1481.69
                             1517.96  1528.78  1545.20  1619.35  1674.52
                             1683.36  1780.05  1804.76  1861.55  1895.67
                             1906.81  1926.29  1968.54  1993.92  2012.39
                             2027.64  2033.10  2039.42  2130.26  2146.69
                             2151.06  2160.46  2162.30  2163.80  2169.69
                             2178.68  2183.69  4373.71  4384.67  4389.57
                             4393.95  4398.13  4399.40  4402.02  4419.00
                             4431.87  4444.94  4451.74  4458.73  4495.72
                             4496.66  4507.45  4509.30

 Zero-point correction=                           0.219465 (Hartree/Particle)
 Thermal correction to Energy=                    0.228693
 Thermal correction to Enthalpy=                  0.229637
 Thermal correction to Gibbs Free Energy=         0.185625
 Sum of electronic and zero-point Energies=           -276.120566
 Sum of electronic and thermal Energies=              -276.111339
 Sum of electronic and thermal Enthalpies=            -276.110394
 Sum of electronic and thermal Free Energies=         -276.154406

                     E (Thermal)             CV                S
                      KCal/Mol        Cal/Mol-Kelvin    Cal/Mol-Kelvin
 Total                  143.507             33.598             92.631
 Electronic               0.000              0.000              0.000
 Translational            0.889              2.981             39.722
 Rotational               0.889              2.981             28.352
 Vibrational            141.729             27.637             24.557
 Vibration     1          0.597              1.971              4.329
 Vibration     2          0.604              1.948              3.423
 Vibration     3          0.607              1.939              3.222
 Vibration     4          0.633              1.856              2.248
 Vibration     5          0.646              1.815              1.985
 Vibration     6          0.665              1.756              1.702
 Vibration     7          0.684              1.699              1.497
 Vibration     8          0.702              1.646              1.339
 Vibration     9          0.737              1.549              1.110
 Vibration    10          0.795              1.397              0.846
 Vibration    11          0.889              1.175              0.579

 Optimization completed.
    -- Stationary point found.
 Normal termination of Gaussian 16 at Sun Sep 29 11:19:36 2019.
