 Gaussian 16, Revision A.03,
 Gaussian 16:  EM64L-G16RevA.03 25-Dec-2016

 ----------------------------------------------------------------------
 #p m062x/cc-pVTZ opt=(calcfc,maxcycles=900,Tight) freq IOP(7/33=1,2/16
 =3) scf=(maxcycle=900)
 ----------------------------------------------------------------------

 ------------------------------
 Gaussian input prepared by ASE
 ------------------------------
 Symbolic Z-matrix:
 Charge =  0 Multiplicity = 1

 SCF Done:  E(RM062X) =  -276.307194895     A.U. after   11 cycles
 SCF Done:  E(RM062X) =  -276.322748907     A.U. after   11 cycles
 SCF Done:  E(RM062X) =  -276.323181357     A.U. after    9 cycles
 SCF Done:  E(RM062X) =  -276.326723254     A.U. after   11 cycles
 SCF Done:  E(RM062X) =  -276.329739954     A.U. after   10 cycles
 SCF Done:  E(RM062X) =  -276.331776797     A.U. after    9 cycles
 SCF Done:  E(RM062X) =  -276.333568915     A.U. after   10 cycles
 SCF Done:  E(RM062X) =  -276.332873644     A.U. after   10 cycles
 SCF Done:  E(RM062X) =  -276.334881718     A.U. after   10 cycles
 SCF Done:  E(RM062X) =  -276.335152749     A.U. after    9 cycles
 SCF Done:  E(RM062X) =  -276.336176740     A.U. after    9 cycles
 SCF Done:  E(RM062X) =  -276.336359035     A.U. after   10 cycles
 SCF Done:  E(RM062X) =  -276.336412058     A.U. after    9 cycles
 SCF Done:  E(RM062X) =  -276.336415172     A.U. after    7 cycles
 SCF Done:  E(RM062X) =  -276.336416252     A.U. after    6 cycles
 SCF Done:  E(RM062X) =  -276.336416416     A.U. after    6 cycles
 SCF Done:  E(RM062X) =  -276.336416459     A.U. after    5 cycles
 SCF Done:  E(RM062X) =  -276.336416469     A.U. after    4 cycles
 SCF Done:  E(RM062X) =  -276.336416471     A.U. after    3 cycles
 Optimization completed.
    -- Stationary point found.
 Normal termination of Gaussian 16 at Sat Sep 28 21:24:32 2019.

 ----------------------------------------------------------------------
 #P Geom=AllCheck Guess=TCheck SCRF=Check Test GenChk RM062X/CC-pVTZ Fr
 eq
 ----------------------------------------------------------------------

 Structure from the checkpoint file:  "/scratch/harms.n/gauss_scrdir/Gau-26242.chk"
 ------------------------------
 Gaussian input prepared by ASE
 ------------------------------
 Charge =  0 Multiplicity = 1

                         Standard orientation:
 ---------------------------------------------------------------------
 Center     Atomic      Atomic             Coordinates (Angstroms)
 Number     Number       Type             X           Y           Z
 ---------------------------------------------------------------------
      1          6           0       -0.885995    0.010611    0.688063
      2          6           0        0.268120   -0.993926    0.668402
      3          6           0        1.180040   -0.885519   -0.564318
      4          6           0       -2.005296   -0.342528   -0.286426
      5          6           0        2.459741   -0.086976   -0.315548
      6          6           0       -3.122886    0.692569   -0.288671
      7          6           0        2.217590    1.354468    0.117222
      8          1           0       -2.409590   -1.322616   -0.019652
      9          1           0       -1.599652   -0.444162   -1.295770
     10          1           0       -0.512724    1.011755    0.455751
     11          1           0       -1.307740    0.065045    1.695413
     12          1           0       -0.158230   -1.998214    0.727160
     13          1           0        0.877175   -0.873025    1.568427
     14          1           0        0.628907   -0.425250   -1.389739
     15          1           0        1.460169   -1.882664   -0.907177
     16          1           0        3.049532   -0.598334    0.450070
     17          1           0        3.064403   -0.093240   -1.224786
     18          1           0       -2.743835    1.671397   -0.586192
     19          1           0       -3.923048    0.420377   -0.976263
     20          1           0       -3.557123    0.796331    0.706904
     21          1           0        1.691366    1.400754    1.071266
     22          1           0        1.614665    1.886821   -0.620966
     23          1           0        3.157848    1.892824    0.233208
 ---------------------------------------------------------------------

 SCF Done:  E(RM062X) =  -276.336416471     A.U. after    1 cycles

 The electronic state is 1-A.
 Alpha  occ. eigenvalues --  -10.52670 -10.52558 -10.52483 -10.52433 -10.52385
 Alpha  occ. eigenvalues --  -10.51963 -10.51918  -0.91213  -0.87599  -0.82201
 Alpha  occ. eigenvalues --   -0.76686  -0.70591  -0.66563  -0.63774  -0.54320
 Alpha  occ. eigenvalues --   -0.52974  -0.51527  -0.48918  -0.48363  -0.45899
 Alpha  occ. eigenvalues --   -0.44560  -0.43149  -0.42532  -0.40021  -0.39185
 Alpha  occ. eigenvalues --   -0.39034  -0.37002  -0.36480  -0.36204
 Alpha virt. eigenvalues --    0.06748   0.08127   0.09039   0.09162   0.11359
 Alpha virt. eigenvalues --    0.12354   0.12565   0.13665   0.14241   0.15186
 Alpha virt. eigenvalues --    0.16210   0.16783   0.17377   0.17904   0.19241

 Mulliken charges:
               1
     1  C   -0.282057
     2  C   -0.308220
     3  C   -0.269180
     4  C   -0.232209
     5  C   -0.226379
     6  C   -0.352062
     7  C   -0.391735
     8  H    0.124276
     9  H    0.130386
    10  H    0.151396
    11  H    0.137584
    12  H    0.142068
    13  H    0.147600
    14  H    0.140140
    15  H    0.134346
    16  H    0.125724
    17  H    0.125252
    18  H    0.109529
    19  H    0.114118
    20  H    0.109447
    21  H    0.124047
    22  H    0.122393
    23  H    0.123535
 Sum of Mulliken charges =  -0.00000

 Dipole moment (field-independent basis, Debye):
    X=              0.0785    Y=             -0.1056    Z=             -0.0268  Tot=              0.1343
 Quadrupole moment (field-independent basis, Debye-Ang):
   XX=            -49.0100   YY=            -49.1545   ZZ=            -48.5256
   XY=              0.3489   XZ=             -0.1101   YZ=             -0.3077

  Exact polarizability:  96.987  -0.809  81.473   0.020   0.680  76.233
 Approx polarizability:  98.271  -0.084  97.168   0.117  -0.082  96.733

                      1                      2                      3
                      A                      A                      A
 Frequencies --     62.6897                70.9593               122.9812
 Red. masses --      2.7329                 1.7280                 2.1400
 Frc consts  --      0.0063                 0.0051                 0.0191
 IR Inten    --      0.0102                 0.0057                 0.0199

                      4                      5                      6
                      A                      A                      A
 Frequencies --    150.1734               243.3678               256.2441
 Red. masses --      2.0733                 1.1351                 2.0420
 Frc consts  --      0.0275                 0.0396                 0.0790
 IR Inten    --      0.0110                 0.0033                 0.0039

                      7                      8                      9
                      A                      A                      A
 Frequencies --    273.1862               304.7112               322.5334
 Red. masses --      1.4723                 1.6919                 1.9467
 Frc consts  --      0.0647                 0.0926                 0.1193
 IR Inten    --      0.0576                 0.0189                 0.0652

                     10                     11                     12
                      A                      A                      A
 Frequencies --    456.4551               469.7002               733.7045
 Red. masses --      1.7402                 2.1488                 1.1421
 Frc consts  --      0.2136                 0.2793                 0.3622
 IR Inten    --      0.2875                 0.1999                 2.4691

                     13                     14                     15
                      A                      A                      A
 Frequencies --    772.1854               802.5758               835.7142
 Red. masses --      1.1985                 2.0432                 1.9368
 Frc consts  --      0.4211                 0.7754                 0.7970
 IR Inten    --      2.9352                 0.6580                 0.5123

                     16                     17                     18
                      A                      A                      A
 Frequencies --    862.0132               903.3428               947.8796
 Red. masses --      1.3440                 1.4417                 1.4212
 Frc consts  --      0.5884                 0.6931                 0.7523
 IR Inten    --      0.4882                 0.7337                 5.8426

                     19                     20                     21
                      A                      A                      A
 Frequencies --    956.2083              1037.5742              1066.1671
 Red. masses --      1.8483                 1.9303                 1.5912
 Frc consts  --      0.9957                 1.2244                 1.0657
 IR Inten    --      0.3872                 2.9649                 1.4763

                     22                     23                     24
                      A                      A                      A
 Frequencies --   1073.8582              1080.4584              1126.9462
 Red. masses --      1.8005                 1.6270                 1.9384
 Frc consts  --      1.2233                 1.1191                 1.4504
 IR Inten    --      0.4686                 0.1604                 0.0309

                     25                     26                     27
                      A                      A                      A
 Frequencies --   1157.4875              1168.9628              1245.4191
 Red. masses --      2.0212                 2.0007                 1.3406
 Frc consts  --      1.5955                 1.6107                 1.2251
 IR Inten    --      0.4111                 0.7590                 0.0549

                     28                     29                     30
                      A                      A                      A
 Frequencies --   1255.8730              1291.6367              1311.3821
 Red. masses --      1.3511                 1.2573                 1.2182
 Frc consts  --      1.2555                 1.2359                 1.2343
 IR Inten    --      0.3124                 1.3191                 0.0365

                     31                     32                     33
                      A                      A                      A
 Frequencies --   1329.4678              1334.6911              1368.5437
 Red. masses --      1.2570                 1.1116                 1.2936
 Frc consts  --      1.3090                 1.1667                 1.4274
 IR Inten    --      1.7989                 0.6255                 3.1498

                     34                     35                     36
                      A                      A                      A
 Frequencies --   1382.6383              1391.2815              1401.7167
 Red. masses --      1.4129                 1.4820                 1.5845
 Frc consts  --      1.5914                 1.6902                 1.8343
 IR Inten    --      0.5249                 1.0018                 0.1883

                     37                     38                     39
                      A                      A                      A
 Frequencies --   1413.1681              1417.5233              1484.0024
 Red. masses --      1.2650                 1.3124                 1.0718
 Frc consts  --      1.4884                 1.5537                 1.3907
 IR Inten    --      2.7729                 5.0702                 1.0568

                     40                     41                     42
                      A                      A                      A
 Frequencies --   1490.4340              1493.8908              1497.7644
 Red. masses --      1.0692                 1.0771                 1.0651
 Frc consts  --      1.3993                 1.4162                 1.4077
 IR Inten    --      0.0972                 1.1054                 1.5787

                     43                     44                     45
                      A                      A                      A
 Frequencies --   1499.7338              1503.5767              1509.4359
 Red. masses --      1.0743                 1.0407                 1.0687
 Frc consts  --      1.4237                 1.3862                 1.4346
 IR Inten    --      3.9539                 5.6510                12.9783

                     46                     47                     48
                      A                      A                      A
 Frequencies --   1512.3502              1513.0167              3041.4849
 Red. masses --      1.0770                 1.0653                 1.0622
 Frc consts  --      1.4514                 1.4369                 5.7893
 IR Inten    --      4.4689                13.5067                 5.2203

                     49                     50                     51
                      A                      A                      A
 Frequencies --   3047.4152              3048.1717              3050.4132
 Red. masses --      1.0648                 1.0621                 1.0594
 Frc consts  --      5.8264                 5.8140                 5.8079
 IR Inten    --      6.8569                24.8256                10.7540

                     52                     53                     54
                      A                      A                      A
 Frequencies --   3052.8105              3056.2245              3057.8452
 Red. masses --      1.0608                 1.0386                 1.0391
 Frc consts  --      5.8246                 5.7156                 5.7243
 IR Inten    --     23.7549                18.9160                50.8154

                     55                     56                     57
                      A                      A                      A
 Frequencies --   3074.3517              3082.4916              3088.4852
 Red. masses --      1.0980                 1.1000                 1.0991
 Frc consts  --      6.1145                 6.1581                 6.1769
 IR Inten    --      5.5534                22.4641                31.8475

                     58                     59                     60
                      A                      A                      A
 Frequencies --   3093.0235              3100.1131              3124.2992
 Red. masses --      1.1013                 1.1007                 1.1018
 Frc consts  --      6.2078                 6.2327                 6.3365
 IR Inten    --     30.6119                52.8927                26.2032

                     61                     62                     63
                      A                      A                      A
 Frequencies --   3124.9409              3131.8785              3133.0169
 Red. masses --      1.1027                 1.1016                 1.1015
 Frc consts  --      6.3443                 6.3663                 6.3702
 IR Inten    --     65.0472                35.1992                26.4106

 - Thermochemistry -
 -------------------
 Temperature   298.150 Kelvin.  Pressure   1.00000 Atm.
 Atom     1 has atomic number  6 and mass  12.00000

 Molecular mass:   100.12520 amu.
 Principal axes and moments of inertia in atomic units:
                           1         2         3
     Eigenvalues --   389.799801577.764881725.34055
           X            1.00000   0.00007   0.00218
           Y           -0.00009   0.99995   0.01047
           Z           -0.00218  -0.01047   0.99994
 This molecule is an asymmetric top.
 Rotational symmetry number  1.
 Rotational temperatures (Kelvin)      0.22220     0.05490     0.05020
 Rotational constants (GHZ):           4.62992     1.14386     1.04602
 Zero-point vibrational energy     575479.1 (Joules/Mol)
                                  137.54281 (Kcal/Mol)
 Warning -- explicit consideration of  11 degrees of freedom as
           vibrations may cause significant error
 Vibrational temperatures:     90.20   102.09   176.94   216.07   350.15
          (Kelvin)            368.68   393.05   438.41   464.05   656.74
                              675.79  1055.64  1111.00  1154.73  1202.41
                             1240.24  1299.71  1363.79  1375.77  1492.84
                             1533.98  1545.04  1554.54  1621.42  1665.37
                             1681.88  1791.88  1806.92  1858.38  1886.79
                             1912.81  1920.32  1969.03  1989.31  2001.74
                             2016.76  2033.23  2039.50  2135.15  2144.40
                             2149.38  2154.95  2157.78  2163.31  2171.74
                             2175.93  2176.89  4376.02  4384.55  4385.64
                             4388.86  4392.31  4397.23  4399.56  4423.31
                             4435.02  4443.64  4450.17  4460.37  4495.17
                             4496.09  4506.07  4507.71

 Zero-point correction=                           0.219188 (Hartree/Particle)
 Thermal correction to Energy=                    0.228569
 Thermal correction to Enthalpy=                  0.229514
 Thermal correction to Gibbs Free Energy=         0.184910
 Sum of electronic and zero-point Energies=           -276.117228
 Sum of electronic and thermal Energies=              -276.107847
 Sum of electronic and thermal Enthalpies=            -276.106903
 Sum of electronic and thermal Free Energies=         -276.151507

                     E (Thermal)             CV                S
                      KCal/Mol        Cal/Mol-Kelvin    Cal/Mol-Kelvin
 Total                  143.430             33.757             93.877
 Electronic               0.000              0.000              0.000
 Translational            0.889              2.981             39.722
 Rotational               0.889              2.981             28.453
 Vibrational            141.652             27.795             25.703
 Vibration     1          0.597              1.972              4.371
 Vibration     2          0.598              1.968              4.127
 Vibration     3          0.610              1.930              3.053
 Vibration     4          0.618              1.902              2.670
 Vibration     5          0.659              1.774              1.778
 Vibration     6          0.666              1.752              1.687
 Vibration     7          0.676              1.723              1.576
 Vibration     8          0.696              1.665              1.391
 Vibration     9          0.708              1.630              1.297
 Vibration    10          0.815              1.347              0.776
 Vibration    11          0.827              1.317              0.738

 Optimization completed.
    -- Stationary point found.
 Normal termination of Gaussian 16 at Sun Sep 29 00:39:58 2019.
