 Gaussian 16, Revision A.03,
 Gaussian 16:  EM64L-G16RevA.03 25-Dec-2016

 ----------------------------------------------------------------------
 #p m062x/cc-pVTZ opt=(calcfc,maxcycles=900,Tight) freq IOP(7/33=1,2/16
 =3) scf=(maxcycle=900)
 ----------------------------------------------------------------------

 ------------------------------
 Gaussian input prepared by ASE
 ------------------------------
 Symbolic Z-matrix:
 Charge =  0 Multiplicity = 1

 SCF Done:  E(RM062X) =  -276.305180168     A.U. after   11 cycles
 SCF Done:  E(RM062X) =  -276.325166608     A.U. after   11 cycles
 SCF Done:  E(RM062X) =  -276.298165083     A.U. after   12 cycles
 SCF Done:  E(RM062X) =  -276.327610153     A.U. after    9 cycles
 SCF Done:  E(RM062X) =  -276.309928737     A.U. after   11 cycles
 SCF Done:  E(RM062X) =  -276.328985576     A.U. after    9 cycles
 SCF Done:  E(RM062X) =  -276.329433268     A.U. after    9 cycles
 SCF Done:  E(RM062X) =  -276.330139769     A.U. after    9 cycles
 SCF Done:  E(RM062X) =  -276.330778689     A.U. after    9 cycles
 SCF Done:  E(RM062X) =  -276.331436144     A.U. after    9 cycles
 SCF Done:  E(RM062X) =  -276.336479355     A.U. after    8 cycles
 SCF Done:  E(RM062X) =  -276.336481508     A.U. after    8 cycles
 SCF Done:  E(RM062X) =  -276.336481833     A.U. after    7 cycles
 SCF Done:  E(RM062X) =  -276.336481889     A.U. after    6 cycles
 SCF Done:  E(RM062X) =  -276.336481901     A.U. after    5 cycles
 SCF Done:  E(RM062X) =  -276.336481902     A.U. after    3 cycles
 SCF Done:  E(RM062X) =  -276.336481901     A.U. after    3 cycles
 SCF Done:  E(RM062X) =  -276.336481902     A.U. after    3 cycles
 SCF Done:  E(RM062X) =  -276.336481902     A.U. after    3 cycles
 Optimization completed.
    -- Stationary point found.
 Normal termination of Gaussian 16 at Sun Sep 29 22:58:09 2019.

 ----------------------------------------------------------------------
 #P Geom=AllCheck Guess=TCheck SCRF=Check Test GenChk RM062X/CC-pVTZ Fr
 eq
 ----------------------------------------------------------------------

 Structure from the checkpoint file:  "/scratch/harms.n/gauss_scrdir/Gau-40243.chk"
 ------------------------------
 Gaussian input prepared by ASE
 ------------------------------
 Charge =  0 Multiplicity = 1

                         Standard orientation:
 ---------------------------------------------------------------------
 Center     Atomic      Atomic             Coordinates (Angstroms)
 Number     Number       Type             X           Y           Z
 ---------------------------------------------------------------------
      1          6           0       -1.508173   -1.009771    0.166922
      2          6           0       -0.081360   -1.132202    0.706823
      3          6           0        1.013730   -1.111562   -0.368988
      4          6           0       -1.824510    0.279470   -0.589230
      5          6           0        1.595934    0.263634   -0.709272
      6          6           0       -1.653881    1.534583    0.259042
      7          6           0        2.369059    0.892969    0.444732
      8          1           0       -2.855536    0.226854   -0.944913
      9          1           0       -1.202262    0.345318   -1.484590
     10          1           0       -2.206751   -1.101366    1.003622
     11          1           0       -1.701897   -1.861456   -0.490823
     12          1           0       -0.019720   -2.074696    1.253603
     13          1           0        0.104055   -0.351799    1.448047
     14          1           0        0.619126   -1.572325   -1.279365
     15          1           0        1.843593   -1.745182   -0.045192
     16          1           0        2.268247    0.150010   -1.562333
     17          1           0        0.807871    0.944636   -1.032931
     18          1           0       -2.267479    1.475723    1.159987
     19          1           0       -0.619081    1.670856    0.575413
     20          1           0       -1.950549    2.427788   -0.290118
     21          1           0        3.169120    0.230668    0.780054
     22          1           0        1.726421    1.093159    1.302622
     23          1           0        2.820051    1.839088    0.146745
 ---------------------------------------------------------------------

 SCF Done:  E(RM062X) =  -276.336481902     A.U. after    1 cycles

 The electronic state is 1-A.
 Alpha  occ. eigenvalues --  -10.52622 -10.52613 -10.52518 -10.52459 -10.52351
 Alpha  occ. eigenvalues --  -10.51967 -10.51967  -0.91246  -0.87324  -0.82341
 Alpha  occ. eigenvalues --   -0.76442  -0.71923  -0.66273  -0.62626  -0.54907
 Alpha  occ. eigenvalues --   -0.53640  -0.50479  -0.49772  -0.47270  -0.46813
 Alpha  occ. eigenvalues --   -0.44263  -0.44074  -0.41757  -0.39994  -0.39642
 Alpha  occ. eigenvalues --   -0.38996  -0.36881  -0.36364  -0.35999
 Alpha virt. eigenvalues --    0.06584   0.08457   0.08719   0.09156   0.11891
 Alpha virt. eigenvalues --    0.12777   0.12989   0.13978   0.14189   0.15020
 Alpha virt. eigenvalues --    0.15329   0.16297   0.18055   0.18561   0.19792

 Mulliken charges:
               1
     1  C   -0.272183
     2  C   -0.300848
     3  C   -0.283393
     4  C   -0.274465
     5  C   -0.301612
     6  C   -0.382613
     7  C   -0.362179
     8  H    0.139030
     9  H    0.143696
    10  H    0.139312
    11  H    0.138934
    12  H    0.143474
    13  H    0.153535
    14  H    0.148607
    15  H    0.142652
    16  H    0.140177
    17  H    0.157417
    18  H    0.123188
    19  H    0.122933
    20  H    0.125658
    21  H    0.118444
    22  H    0.118976
    23  H    0.121263
 Sum of Mulliken charges =  -0.00000

 Dipole moment (field-independent basis, Debye):
    X=             -0.0344    Y=             -0.0673    Z=             -0.0876  Tot=              0.1157
 Quadrupole moment (field-independent basis, Debye-Ang):
   XX=            -48.5122   YY=            -48.9757   ZZ=            -48.9582
   XY=             -0.2127   XZ=             -0.2642   YZ=             -0.2422

  Exact polarizability:  90.904   0.735  84.522   0.183   0.065  76.838
 Approx polarizability:  98.166   0.025  97.449  -0.027   0.131  97.162

                      1                      2                      3
                      A                      A                      A
 Frequencies --     54.3675               106.6528               147.7662
 Red. masses --      2.4833                 2.2486                 1.5233
 Frc consts  --      0.0043                 0.0151                 0.0196
 IR Inten    --      0.0188                 0.0285                 0.0844

                      4                      5                      6
                      A                      A                      A
 Frequencies --    190.0728               223.9415               263.5645
 Red. masses --      1.7735                 1.4854                 1.7668
 Frc consts  --      0.0378                 0.0439                 0.0723
 IR Inten    --      0.0184                 0.0596                 0.0354

                      7                      8                      9
                      A                      A                      A
 Frequencies --    280.6684               314.3329               393.8308
 Red. masses --      1.5229                 1.8413                 1.7178
 Frc consts  --      0.0707                 0.1072                 0.1570
 IR Inten    --      0.1567                 0.1006                 0.1466

                     10                     11                     12
                      A                      A                      A
 Frequencies --    423.2191               485.3811               738.2533
 Red. masses --      1.8955                 1.8376                 1.3259
 Frc consts  --      0.2000                 0.2551                 0.4258
 IR Inten    --      0.3044                 0.5268                 0.1403

                     13                     14                     15
                      A                      A                      A
 Frequencies --    758.4727               790.3668               837.3546
 Red. masses --      1.3525                 1.6495                 1.8989
 Frc consts  --      0.4584                 0.6071                 0.7845
 IR Inten    --      9.1936                 3.7795                 0.2143

                     16                     17                     18
                      A                      A                      A
 Frequencies --    875.8357               879.6074               945.4759
 Red. masses --      1.4611                 1.6180                 1.7727
 Frc consts  --      0.6604                 0.7376                 0.9337
 IR Inten    --      1.6765                 0.2611                 3.6473

                     19                     20                     21
                      A                      A                      A
 Frequencies --    965.0684              1005.6160              1056.0778
 Red. masses --      1.4157                 1.7998                 1.4377
 Frc consts  --      0.7769                 1.0724                 0.9447
 IR Inten    --      0.8203                 0.1410                 0.0679

                     22                     23                     24
                      A                      A                      A
 Frequencies --   1074.5480              1084.9162              1134.8953
 Red. masses --      1.4568                 1.9032                 1.8662
 Frc consts  --      0.9911                 1.3199                 1.4162
 IR Inten    --      0.2609                 0.5462                 0.0518

                     25                     26                     27
                      A                      A                      A
 Frequencies --   1145.2117              1170.2234              1220.9677
 Red. masses --      1.9855                 2.0745                 1.3401
 Frc consts  --      1.5342                 1.6738                 1.1770
 IR Inten    --      1.8440                 0.2569                 0.2992

                     28                     29                     30
                      A                      A                      A
 Frequencies --   1264.5751              1284.7555              1316.4508
 Red. masses --      1.3107                 1.2193                 1.2239
 Frc consts  --      1.2350                 1.1858                 1.2497
 IR Inten    --      0.0853                 0.4484                 0.9996

                     31                     32                     33
                      A                      A                      A
 Frequencies --   1330.6050              1357.4290              1376.4474
 Red. masses --      1.1064                 1.3704                 1.3631
 Frc consts  --      1.1541                 1.4878                 1.5215
 IR Inten    --      1.1910                 2.2562                 1.2252

                     34                     35                     36
                      A                      A                      A
 Frequencies --   1390.7660              1394.3114              1400.3856
 Red. masses --      1.4146                 1.4965                 1.4502
 Frc consts  --      1.6121                 1.7142                 1.6756
 IR Inten    --      0.5223                 1.1418                 0.4073

                     37                     38                     39
                      A                      A                      A
 Frequencies --   1413.9315              1417.7692              1484.0389
 Red. masses --      1.2880                 1.3002                 1.0778
 Frc consts  --      1.5171                 1.5399                 1.3986
 IR Inten    --      3.4915                 9.7169                 0.8936

                     40                     41                     42
                      A                      A                      A
 Frequencies --   1487.6582              1489.7297              1497.6197
 Red. masses --      1.0699                 1.0635                 1.0792
 Frc consts  --      1.3951                 1.3906                 1.4261
 IR Inten    --      1.9912                 2.3749                 6.2870

                     43                     44                     45
                      A                      A                      A
 Frequencies --   1501.8956              1504.6011              1509.7215
 Red. masses --      1.0574                 1.0453                 1.0766
 Frc consts  --      1.4052                 1.3942                 1.4457
 IR Inten    --      5.3296                10.1301                10.0146

                     46                     47                     48
                      A                      A                      A
 Frequencies --   1513.9094              1519.2443              3040.1053
 Red. masses --      1.0751                 1.0633                 1.0616
 Frc consts  --      1.4518                 1.4459                 5.7810
 IR Inten    --      4.5164                 1.4539                30.5870

                     49                     50                     51
                      A                      A                      A
 Frequencies --   3040.7991              3055.5427              3057.8879
 Red. masses --      1.0608                 1.0494                 1.0470
 Frc consts  --      5.7789                 5.7723                 5.7685
 IR Inten    --     15.8958                12.7978                15.9419

                     52                     53                     54
                      A                      A                      A
 Frequencies --   3060.8237              3062.3372              3068.8144
 Red. masses --      1.0520                 1.0623                 1.0653
 Frc consts  --      5.8070                 5.8697                 5.9112
 IR Inten    --     20.6936                22.8554                10.2375

                     55                     56                     57
                      A                      A                      A
 Frequencies --   3076.1253              3081.5462              3092.1212
 Red. masses --      1.0973                 1.0927                 1.1011
 Frc consts  --      6.1175                 6.1136                 6.2027
 IR Inten    --      3.6376                58.6736                35.2866

                     58                     59                     60
                      A                      A                      A
 Frequencies --   3100.0668              3107.2349              3125.4265
 Red. masses --      1.1010                 1.0957                 1.1013
 Frc consts  --      6.2342                 6.2328                 6.3381
 IR Inten    --     43.8599                18.3588                45.3029

                     61                     62                     63
                      A                      A                      A
 Frequencies --   3129.8353              3133.0511              3134.2244
 Red. masses --      1.1011                 1.1010                 1.1011
 Frc consts  --      6.3548                 6.3675                 6.3731
 IR Inten    --     57.2162                32.3311                16.4725

 - Thermochemistry -
 -------------------
 Temperature   298.150 Kelvin.  Pressure   1.00000 Atm.
 Atom     1 has atomic number  6 and mass  12.00000

 Molecular mass:   100.12520 amu.
 Principal axes and moments of inertia in atomic units:
                           1         2         3
     Eigenvalues --   543.468681095.659681362.61084
           X            1.00000   0.00092   0.00300
           Y           -0.00095   0.99996   0.00934
           Z           -0.00300  -0.00934   0.99995
 This molecule is an asymmetric top.
 Rotational symmetry number  1.
 Warning -- assumption of classical behavior for rotation
           may cause significant error
 Rotational temperatures (Kelvin)      0.15937     0.07905     0.06356
 Rotational constants (GHZ):           3.32078     1.64717     1.32447
 Zero-point vibrational energy     576531.1 (Joules/Mol)
                                  137.79424 (Kcal/Mol)
 Warning -- explicit consideration of  11 degrees of freedom as
           vibrations may cause significant error
 Vibrational temperatures:     78.22   153.45   212.60   273.47   322.20
          (Kelvin)            379.21   403.82   452.25   566.63   608.92
                              698.36  1062.18  1091.27  1137.16  1204.77
                             1260.13  1265.56  1360.33  1388.52  1446.86
                             1519.46  1546.03  1560.95  1632.86  1647.70
                             1683.69  1756.70  1819.44  1848.48  1894.08
                             1914.44  1953.04  1980.40  2001.00  2006.10
                             2014.84  2034.33  2039.85  2135.20  2140.41
                             2143.39  2154.74  2160.89  2164.79  2172.15
                             2178.18  2185.85  4374.03  4375.03  4396.24
                             4399.62  4403.84  4406.02  4415.34  4425.86
                             4433.66  4448.87  4460.30  4470.62  4496.79
                             4503.13  4507.76  4509.45

 Zero-point correction=                           0.219589 (Hartree/Particle)
 Thermal correction to Energy=                    0.228754
 Thermal correction to Enthalpy=                  0.229698
 Thermal correction to Gibbs Free Energy=         0.185947
 Sum of electronic and zero-point Energies=           -276.116893
 Sum of electronic and thermal Energies=              -276.107728
 Sum of electronic and thermal Enthalpies=            -276.106784
 Sum of electronic and thermal Free Energies=         -276.150535

                     E (Thermal)             CV                S
                      KCal/Mol        Cal/Mol-Kelvin    Cal/Mol-Kelvin
 Total                  143.545             33.612             92.082
 Electronic               0.000              0.000              0.000
 Translational            0.889              2.981             39.722
 Rotational               0.889              2.981             28.186
 Vibrational            141.768             27.650             24.174
 Vibration     1          0.596              1.976              4.652
 Vibration     2          0.606              1.944              3.329
 Vibration     3          0.617              1.905              2.701
 Vibration     4          0.633              1.854              2.227
 Vibration     5          0.649              1.805              1.927
 Vibration     6          0.670              1.740              1.638
 Vibration     7          0.680              1.709              1.530
 Vibration     8          0.702              1.646              1.339
 Vibration     9          0.761              1.483              0.986
 Vibration    10          0.785              1.420              0.881
 Vibration    11          0.841              1.282              0.696

 Optimization completed.
    -- Stationary point found.
 Normal termination of Gaussian 16 at Mon Sep 30 01:54:59 2019.
