 Gaussian 16, Revision A.03,
 Gaussian 16:  EM64L-G16RevA.03 25-Dec-2016

 ----------------------------------------------------------------------
 #p m062x/cc-pVTZ opt=(calcfc,maxcycles=900,Tight) freq IOP(7/33=1,2/16
 =3) scf=(maxcycle=900)
 ----------------------------------------------------------------------

 ------------------------------
 Gaussian input prepared by ASE
 ------------------------------
 Symbolic Z-matrix:
 Charge =  0 Multiplicity = 1

 SCF Done:  E(RM062X) =  -276.311604123     A.U. after   11 cycles
 SCF Done:  E(RM062X) =  -276.325003532     A.U. after   10 cycles
 SCF Done:  E(RM062X) =  -276.331528131     A.U. after   11 cycles
 SCF Done:  E(RM062X) =  -276.330446105     A.U. after   10 cycles
 SCF Done:  E(RM062X) =  -276.334241851     A.U. after   10 cycles
 SCF Done:  E(RM062X) =  -276.334651938     A.U. after   10 cycles
 SCF Done:  E(RM062X) =  -276.337355238     A.U. after    9 cycles
 SCF Done:  E(RM062X) =  -276.338486537     A.U. after   11 cycles
 SCF Done:  E(RM062X) =  -276.338887040     A.U. after   10 cycles
 SCF Done:  E(RM062X) =  -276.339197626     A.U. after    9 cycles
 SCF Done:  E(RM062X) =  -276.339409745     A.U. after    8 cycles
 SCF Done:  E(RM062X) =  -276.339412237     A.U. after    8 cycles
 SCF Done:  E(RM062X) =  -276.339412536     A.U. after    6 cycles
 SCF Done:  E(RM062X) =  -276.339412651     A.U. after    5 cycles
 SCF Done:  E(RM062X) =  -276.339412780     A.U. after    5 cycles
 SCF Done:  E(RM062X) =  -276.339412792     A.U. after    5 cycles
 SCF Done:  E(RM062X) =  -276.339412792     A.U. after    3 cycles
 SCF Done:  E(RM062X) =  -276.339412792     A.U. after    3 cycles
 SCF Done:  E(RM062X) =  -276.339412792     A.U. after    3 cycles
 Optimization completed.
    -- Stationary point found.
 Normal termination of Gaussian 16 at Sat Sep 28 10:20:03 2019.

 ----------------------------------------------------------------------
 #P Geom=AllCheck Guess=TCheck SCRF=Check Test GenChk RM062X/CC-pVTZ Fr
 eq
 ----------------------------------------------------------------------

 Structure from the checkpoint file:  "/scratch/harms.n/gauss_scrdir/Gau-45042.chk"
 ------------------------------
 Gaussian input prepared by ASE
 ------------------------------
 Charge =  0 Multiplicity = 1

                         Standard orientation:
 ---------------------------------------------------------------------
 Center     Atomic      Atomic             Coordinates (Angstroms)
 Number     Number       Type             X           Y           Z
 ---------------------------------------------------------------------
      1          6           0       -1.268156   -0.894230   -0.272491
      2          6           0       -0.000001   -0.206036    0.221282
      3          6           0        1.268155   -0.894228   -0.272492
      4          6           0       -2.558420   -0.298934    0.286762
      5          6           0        2.558419   -0.298935    0.286764
      6          6           0       -2.779827    1.157015   -0.109239
      7          6           0        2.779830    1.157013   -0.109240
      8          1           0       -2.547976   -0.383039    1.376843
      9          1           0       -3.403312   -0.897300   -0.059653
     10          1           0       -1.219196   -1.954137   -0.009004
     11          1           0       -1.295499   -0.850314   -1.366155
     12          1           0       -0.000000   -0.190250    1.317131
     13          1           0       -0.000003    0.836207   -0.103229
     14          1           0        1.295500   -0.850306   -1.366156
     15          1           0        1.219193   -1.954136   -0.009011
     16          1           0        2.547971   -0.383037    1.376845
     17          1           0        3.403310   -0.897305   -0.059647
     18          1           0       -2.023608    1.810506    0.324918
     19          1           0       -2.736094    1.272921   -1.193926
     20          1           0       -3.753350    1.513389    0.225989
     21          1           0        2.023604    1.810503    0.324905
     22          1           0        2.736111    1.272916   -1.193928
     23          1           0        3.753348    1.513391    0.226000
 ---------------------------------------------------------------------

 SCF Done:  E(RM062X) =  -276.339412793     A.U. after    1 cycles

 The electronic state is 1-A.
 Alpha  occ. eigenvalues --  -10.52632 -10.52632 -10.52445 -10.52438 -10.52342
 Alpha  occ. eigenvalues --  -10.51902 -10.51902  -0.91217  -0.87798  -0.82218
 Alpha  occ. eigenvalues --   -0.76324  -0.71421  -0.65313  -0.64332  -0.54652
 Alpha  occ. eigenvalues --   -0.52868  -0.50305  -0.50117  -0.49051  -0.45185
 Alpha  occ. eigenvalues --   -0.44328  -0.43765  -0.41688  -0.40494  -0.39055
 Alpha  occ. eigenvalues --   -0.38526  -0.37596  -0.36953  -0.35946
 Alpha virt. eigenvalues --    0.06759   0.08125   0.08744   0.09255   0.11385
 Alpha virt. eigenvalues --    0.12081   0.12908   0.13755   0.14349   0.14741
 Alpha virt. eigenvalues --    0.16057   0.17018   0.17583   0.18105   0.18522

 Mulliken charges:
               1
     1  C   -0.262515
     2  C   -0.281512
     3  C   -0.262515
     4  C   -0.239965
     5  C   -0.239965
     6  C   -0.368554
     7  C   -0.368553
     8  H    0.124875
     9  H    0.125839
    10  H    0.131500
    11  H    0.135145
    12  H    0.135023
    13  H    0.149197
    14  H    0.135146
    15  H    0.131500
    16  H    0.124875
    17  H    0.125839
    18  H    0.117872
    19  H    0.115578
    20  H    0.118870
    21  H    0.117872
    22  H    0.115578
    23  H    0.118870
 Sum of Mulliken charges =  -0.00000

 Dipole moment (field-independent basis, Debye):
    X=             -0.0000    Y=             -0.0934    Z=              0.0374  Tot=              0.1006
 Quadrupole moment (field-independent basis, Debye-Ang):
   XX=            -48.7642   YY=            -49.3831   ZZ=            -48.4411
   XY=              0.0000   XZ=              0.0000   YZ=             -0.0710

  Exact polarizability:  98.206   0.000  82.465  -0.000   0.058  75.108
 Approx polarizability:  97.834   0.000  96.826  -0.000   0.120  97.234

                      1                      2                      3
                      A                      A                      A
 Frequencies --     46.7158                80.0028               104.2956
 Red. masses --      2.0760                 2.4249                 2.1196
 Frc consts  --      0.0027                 0.0091                 0.0136
 IR Inten    --      0.0006                 0.0102                 0.0133

                      4                      5                      6
                      A                      A                      A
 Frequencies --    141.6615               160.2721               255.2090
 Red. masses --      1.6465                 1.4807                 1.3452
 Frc consts  --      0.0195                 0.0224                 0.0516
 IR Inten    --      0.0303                 0.0105                 0.0156

                      7                      8                      9
                      A                      A                      A
 Frequencies --    271.1461               310.9482               326.4640
 Red. masses --      1.2732                 2.9001                 1.8975
 Frc consts  --      0.0552                 0.1652                 0.1192
 IR Inten    --      0.0073                 0.0183                 0.0063

                     10                     11                     12
                      A                      A                      A
 Frequencies --    462.4902               463.7568               733.3027
 Red. masses --      2.3776                 2.1019                 1.1301
 Frc consts  --      0.2996                 0.2663                 0.3581
 IR Inten    --      0.0848                 0.5795                 2.9062

                     13                     14                     15
                      A                      A                      A
 Frequencies --    769.1606               779.3055               837.9315
 Red. masses --      1.1923                 1.1819                 1.4293
 Frc consts  --      0.4156                 0.4229                 0.5913
 IR Inten    --      5.5260                 1.5382                 0.1989

                     16                     17                     18
                      A                      A                      A
 Frequencies --    883.1193               908.3660               954.3395
 Red. masses --      1.9704                 2.1042                 1.4696
 Frc consts  --      0.9054                 1.0230                 0.7886
 IR Inten    --      1.7542                 0.6738                 0.4782

                     19                     20                     21
                      A                      A                      A
 Frequencies --    974.1494              1019.7491              1039.5785
 Red. masses --      1.5932                 1.7891                 1.2285
 Frc consts  --      0.8908                 1.0962                 0.7822
 IR Inten    --      0.1735                 0.2054                 0.7897

                     22                     23                     24
                      A                      A                      A
 Frequencies --   1083.7320              1101.2762              1110.9588
 Red. masses --      1.7832                 2.2990                 1.9013
 Frc consts  --      1.2339                 1.6428                 1.3826
 IR Inten    --      0.0180                 1.0264                 0.0426

                     25                     26                     27
                      A                      A                      A
 Frequencies --   1158.4015              1194.9361              1229.4850
 Red. masses --      2.2306                 2.0272                 1.4593
 Frc consts  --      1.7636                 1.7054                 1.2997
 IR Inten    --      0.9614                 0.1999                 2.7989

                     28                     29                     30
                      A                      A                      A
 Frequencies --   1265.9148              1294.2863              1320.7185
 Red. masses --      1.3379                 1.2543                 1.2126
 Frc consts  --      1.2632                 1.2380                 1.2462
 IR Inten    --      0.5857                 0.2926                 1.3237

                     31                     32                     33
                      A                      A                      A
 Frequencies --   1325.5282              1335.9237              1376.1780
 Red. masses --      1.1684                 1.0791                 1.4245
 Frc consts  --      1.2095                 1.1347                 1.5895
 IR Inten    --      0.4841                 0.0166                 3.9735

                     34                     35                     36
                      A                      A                      A
 Frequencies --   1380.3730              1385.3560              1409.5930
 Red. masses --      1.3143                 1.5249                 1.5733
 Frc consts  --      1.4755                 1.7243                 1.8418
 IR Inten    --      0.3496                 0.7699                 1.1822

                     37                     38                     39
                      A                      A                      A
 Frequencies --   1416.4819              1417.8391              1483.3723
 Red. masses --      1.3531                 1.2967                 1.0733
 Frc consts  --      1.5996                 1.5358                 1.3914
 IR Inten    --      3.1768                11.7612                 0.1144

                     40                     41                     42
                      A                      A                      A
 Frequencies --   1487.7441              1493.4789              1494.0153
 Red. masses --      1.0831                 1.0611                 1.0623
 Frc consts  --      1.4124                 1.3945                 1.3971
 IR Inten    --      1.8243                 2.8784                 0.2995

                     43                     44                     45
                      A                      A                      A
 Frequencies --   1505.1090              1505.3500              1508.6987
 Red. masses --      1.0598                 1.0564                 1.0985
 Frc consts  --      1.4146                 1.4105                 1.4731
 IR Inten    --      4.5432                 2.6616                 6.8955

                     46                     47                     48
                      A                      A                      A
 Frequencies --   1512.3237              1513.2395              3028.5997
 Red. masses --      1.0610                 1.0612                 1.0659
 Frc consts  --      1.4297                 1.4317                 5.7606
 IR Inten    --      4.1383                12.0658                 0.4002

                     49                     50                     51
                      A                      A                      A
 Frequencies --   3035.4264              3043.7556              3049.5059
 Red. masses --      1.0619                 1.0640                 1.0638
 Frc consts  --      5.7644                 5.8079                 5.8286
 IR Inten    --      0.0154                66.3237                20.9669

                     52                     53                     54
                      A                      A                      A
 Frequencies --   3049.8839              3059.3399              3059.4949
 Red. masses --      1.0638                 1.0379                 1.0375
 Frc consts  --      5.8302                 5.7235                 5.7219
 IR Inten    --     15.7861                47.0181                 0.2761

                     55                     56                     57
                      A                      A                      A
 Frequencies --   3072.5001              3076.9206              3087.2612
 Red. masses --      1.0914                 1.0977                 1.0995
 Frc consts  --      6.0706                 6.1232                 6.1743
 IR Inten    --     22.0243                 2.7809                25.3352

                     58                     59                     60
                      A                      A                      A
 Frequencies --   3088.6825              3104.8242              3126.6224
 Red. masses --      1.1021                 1.1007                 1.1008
 Frc consts  --      6.1946                 6.2514                 6.3404
 IR Inten    --     17.0157                80.9071                 3.0217

                     61                     62                     63
                      A                      A                      A
 Frequencies --   3127.0708              3135.9273              3137.4800
 Red. masses --      1.1006                 1.1019                 1.1013
 Frc consts  --      6.3410                 6.3846                 6.3874
 IR Inten    --     61.5749                67.6818                 9.5854

 - Thermochemistry -
 -------------------
 Temperature   298.150 Kelvin.  Pressure   1.00000 Atm.
 Atom     1 has atomic number  6 and mass  12.00000

 Molecular mass:   100.12520 amu.
 Principal axes and moments of inertia in atomic units:
                           1         2         3
     Eigenvalues --   347.886821760.058001985.33181
           X            1.00000   0.00000  -0.00000
           Y           -0.00000   1.00000  -0.00170
           Z            0.00000   0.00170   1.00000
 This molecule is an asymmetric top.
 Rotational symmetry number  1.
 Rotational temperatures (Kelvin)      0.24897     0.04921     0.04363
 Rotational constants (GHZ):           5.18773     1.02539     0.90904
 Zero-point vibrational energy     574898.8 (Joules/Mol)
                                  137.40411 (Kcal/Mol)
 Warning -- explicit consideration of  11 degrees of freedom as
           vibrations may cause significant error
 Vibrational temperatures:     67.21   115.11   150.06   203.82   230.60
          (Kelvin)            367.19   390.12   447.39   469.71   665.42
                              667.24  1055.06  1106.65  1121.25  1205.60
                             1270.61  1306.94  1373.08  1401.58  1467.19
                             1495.72  1559.25  1584.49  1598.42  1666.68
                             1719.25  1768.95  1821.37  1862.19  1900.22
                             1907.14  1922.10  1980.01  1986.05  1993.22
                             2028.09  2038.00  2039.95  2134.24  2140.53
                             2148.78  2149.55  2165.52  2165.86  2170.68
                             2175.90  2177.21  4357.48  4367.30  4379.29
                             4387.56  4388.10  4401.71  4401.93  4420.64
                             4427.00  4441.88  4443.93  4467.15  4498.51
                             4499.16  4511.90  4514.13

 Zero-point correction=                           0.218967 (Hartree/Particle)
 Thermal correction to Energy=                    0.228534
 Thermal correction to Enthalpy=                  0.229478
 Thermal correction to Gibbs Free Energy=         0.184093
 Sum of electronic and zero-point Energies=           -276.120445
 Sum of electronic and thermal Energies=              -276.110879
 Sum of electronic and thermal Enthalpies=            -276.109935
 Sum of electronic and thermal Free Energies=         -276.155320

                     E (Thermal)             CV                S
                      KCal/Mol        Cal/Mol-Kelvin    Cal/Mol-Kelvin
 Total                  143.407             33.868             95.521
 Electronic               0.000              0.000              0.000
 Translational            0.889              2.981             39.722
 Rotational               0.889              2.981             28.588
 Vibrational            141.630             27.907             27.212
 Vibration     1          0.595              1.979              4.952
 Vibration     2          0.600              1.963              3.891
 Vibration     3          0.605              1.946              3.372
 Vibration     4          0.615              1.912              2.781
 Vibration     5          0.622              1.891              2.547
 Vibration     6          0.666              1.754              1.694
 Vibration     7          0.675              1.726              1.589
 Vibration     8          0.700              1.653              1.357
 Vibration     9          0.710              1.623              1.278
 Vibration    10          0.820              1.333              0.759
 Vibration    11          0.821              1.330              0.755

 Optimization completed.
    -- Stationary point found.
 Normal termination of Gaussian 16 at Sat Sep 28 13:12:50 2019.
