 Gaussian 16, Revision A.03,
 Gaussian 16:  EM64L-G16RevA.03 25-Dec-2016

 ----------------------------------------------------------------------
 #p m062x/cc-pVTZ opt=(calcfc,maxcycles=900,Tight) freq IOP(7/33=1,2/16
 =3) scf=(maxcycle=900)
 ----------------------------------------------------------------------

 ------------------------------
 Gaussian input prepared by ASE
 ------------------------------
 Symbolic Z-matrix:
 Charge =  0 Multiplicity = 1

 SCF Done:  E(RM062X) =  -276.308400564     A.U. after   11 cycles
 SCF Done:  E(RM062X) =  -276.324336421     A.U. after   11 cycles
 SCF Done:  E(RM062X) =  -276.320773452     A.U. after   12 cycles
 SCF Done:  E(RM062X) =  -276.328994021     A.U. after   10 cycles
 SCF Done:  E(RM062X) =  -276.330949396     A.U. after   10 cycles
 SCF Done:  E(RM062X) =  -276.333684433     A.U. after   12 cycles
 SCF Done:  E(RM062X) =  -276.335009412     A.U. after   10 cycles
 SCF Done:  E(RM062X) =  -276.335652612     A.U. after    9 cycles
 SCF Done:  E(RM062X) =  -276.336166370     A.U. after    9 cycles
 SCF Done:  E(RM062X) =  -276.336467137     A.U. after    9 cycles
 SCF Done:  E(RM062X) =  -276.337156175     A.U. after    7 cycles
 SCF Done:  E(RM062X) =  -276.337159311     A.U. after    8 cycles
 SCF Done:  E(RM062X) =  -276.337160648     A.U. after    8 cycles
 SCF Done:  E(RM062X) =  -276.337161291     A.U. after    6 cycles
 SCF Done:  E(RM062X) =  -276.337161452     A.U. after    5 cycles
 SCF Done:  E(RM062X) =  -276.337161456     A.U. after    5 cycles
 SCF Done:  E(RM062X) =  -276.337161458     A.U. after    3 cycles
 SCF Done:  E(RM062X) =  -276.337161458     A.U. after    2 cycles
 SCF Done:  E(RM062X) =  -276.337161460     A.U. after    3 cycles
 Optimization completed.
    -- Stationary point found.
 Normal termination of Gaussian 16 at Sat Sep 28 11:56:26 2019.

 ----------------------------------------------------------------------
 #P Geom=AllCheck Guess=TCheck SCRF=Check Test GenChk RM062X/CC-pVTZ Fr
 eq
 ----------------------------------------------------------------------

 Structure from the checkpoint file:  "/scratch/harms.n/gauss_scrdir/Gau-46186.chk"
 ------------------------------
 Gaussian input prepared by ASE
 ------------------------------
 Charge =  0 Multiplicity = 1

                         Standard orientation:
 ---------------------------------------------------------------------
 Center     Atomic      Atomic             Coordinates (Angstroms)
 Number     Number       Type             X           Y           Z
 ---------------------------------------------------------------------
      1          6           0       -1.555636   -0.976649    0.337991
      2          6           0       -0.358888   -1.300841   -0.558970
      3          6           0        1.007009   -0.956770    0.050207
      4          6           0       -1.717540    0.493546    0.719625
      5          6           0        1.555574    0.416207   -0.332712
      6          6           0       -1.971014    1.403821   -0.476691
      7          6           0        2.924407    0.679477    0.281703
      8          1           0       -0.834940    0.831622    1.268047
      9          1           0       -2.553701    0.580401    1.416395
     10          1           0       -1.469126   -1.571188    1.251448
     11          1           0       -2.470207   -1.309541   -0.161152
     12          1           0       -0.463371   -0.794865   -1.522772
     13          1           0       -0.394958   -2.369067   -0.779065
     14          1           0        1.741910   -1.703978   -0.259698
     15          1           0        0.947535   -1.029852    1.141578
     16          1           0        1.622734    0.476049   -1.422470
     17          1           0        0.862011    1.200847   -0.026739
     18          1           0       -2.855624    1.076803   -1.026235
     19          1           0       -2.134339    2.434509   -0.162911
     20          1           0       -1.131967    1.399687   -1.172726
     21          1           0        3.642924   -0.079102   -0.032742
     22          1           0        2.871450    0.651286    1.371201
     23          1           0        3.316198    1.653651   -0.009077
 ---------------------------------------------------------------------

 SCF Done:  E(RM062X) =  -276.337161460     A.U. after    1 cycles

 The electronic state is 1-A.
 Alpha  occ. eigenvalues --  -10.52625 -10.52613 -10.52494 -10.52481 -10.52413
 Alpha  occ. eigenvalues --  -10.51944 -10.51913  -0.91240  -0.87444  -0.82497
 Alpha  occ. eigenvalues --   -0.76449  -0.71054  -0.66619  -0.63220  -0.55217
 Alpha  occ. eigenvalues --   -0.52800  -0.51051  -0.49075  -0.47575  -0.46370
 Alpha  occ. eigenvalues --   -0.45353  -0.42746  -0.42448  -0.40092  -0.39117
 Alpha  occ. eigenvalues --   -0.39059  -0.37186  -0.36353  -0.36166
 Alpha virt. eigenvalues --    0.06734   0.07938   0.08665   0.09224   0.11533
 Alpha virt. eigenvalues --    0.12871   0.13432   0.13557   0.14154   0.15067
 Alpha virt. eigenvalues --    0.15600   0.16832   0.17863   0.17975   0.19601

 Mulliken charges:
               1
     1  C   -0.271848
     2  C   -0.289336
     3  C   -0.267365
     4  C   -0.276179
     5  C   -0.269546
     6  C   -0.379387
     7  C   -0.355008
     8  H    0.143451
     9  H    0.139172
    10  H    0.139796
    11  H    0.138840
    12  H    0.144705
    13  H    0.140214
    14  H    0.136704
    15  H    0.141348
    16  H    0.135565
    17  H    0.143479
    18  H    0.121085
    19  H    0.123828
    20  H    0.125442
    21  H    0.110650
    22  H    0.110052
    23  H    0.114338
 Sum of Mulliken charges =   0.00000

 Dipole moment (field-independent basis, Debye):
    X=             -0.0584    Y=             -0.0423    Z=              0.0143  Tot=              0.0735
 Quadrupole moment (field-independent basis, Debye-Ang):
   XX=            -49.0793   YY=            -48.8037   ZZ=            -48.8404
   XY=             -0.0495   XZ=             -0.4554   YZ=              0.2557

  Exact polarizability:  93.841   0.542  83.818   0.667  -0.379  76.328
 Approx polarizability:  98.196  -0.095  97.180   0.422  -0.184  97.265

                      1                      2                      3
                      A                      A                      A
 Frequencies --     61.1355                99.3781               107.7712
 Red. masses --      1.6333                 2.8923                 2.1977
 Frc consts  --      0.0036                 0.0168                 0.0150
 IR Inten    --      0.0071                 0.0199                 0.0165

                      4                      5                      6
                      A                      A                      A
 Frequencies --    187.7604               214.9729               247.2423
 Red. masses --      1.4975                 1.9655                 1.1141
 Frc consts  --      0.0311                 0.0535                 0.0401
 IR Inten    --      0.0104                 0.1015                 0.0026

                      7                      8                      9
                      A                      A                      A
 Frequencies --    269.8336               299.9457               369.2300
 Red. masses --      1.7355                 1.9345                 1.9467
 Frc consts  --      0.0745                 0.1025                 0.1564
 IR Inten    --      0.0167                 0.0784                 0.1484

                     10                     11                     12
                      A                      A                      A
 Frequencies --    418.6544               500.7015               729.9650
 Red. masses --      2.2726                 1.9116                 1.1700
 Frc consts  --      0.2347                 0.2824                 0.3673
 IR Inten    --      0.2103                 0.1485                 3.8215

                     13                     14                     15
                      A                      A                      A
 Frequencies --    751.2011               788.8691               858.7097
 Red. masses --      1.2077                 1.8370                 1.5186
 Frc consts  --      0.4015                 0.6735                 0.6598
 IR Inten    --      4.3523                 1.2535                 1.1940

                     16                     17                     18
                      A                      A                      A
 Frequencies --    874.4933               882.6543               952.1379
 Red. masses --      1.4148                 1.6897                 1.6708
 Frc consts  --      0.6375                 0.7756                 0.8924
 IR Inten    --      0.4528                 0.3412                 4.3297

                     19                     20                     21
                      A                      A                      A
 Frequencies --    966.7019              1030.4021              1061.0264
 Red. masses --      1.4721                 2.1811                 1.4467
 Frc consts  --      0.8105                 1.3644                 0.9596
 IR Inten    --      1.1443                 0.1081                 0.3298

                     22                     23                     24
                      A                      A                      A
 Frequencies --   1074.1555              1080.5093              1125.0212
 Red. masses --      1.5573                 1.8569                 1.9548
 Frc consts  --      1.0587                 1.2773                 1.4577
 IR Inten    --      0.8578                 0.2209                 0.2103

                     25                     26                     27
                      A                      A                      A
 Frequencies --   1151.8091              1180.6976              1233.0012
 Red. masses --      2.0688                 2.0377                 1.3748
 Frc consts  --      1.6171                 1.6737                 1.2315
 IR Inten    --      0.5315                 0.5352                 0.3581

                     28                     29                     30
                      A                      A                      A
 Frequencies --   1264.2242              1284.0930              1317.7877
 Red. masses --      1.3188                 1.2424                 1.2540
 Frc consts  --      1.2419                 1.2069                 1.2830
 IR Inten    --      0.0228                 0.7305                 1.5587

                     31                     32                     33
                      A                      A                      A
 Frequencies --   1331.7404              1337.2727              1366.1416
 Red. masses --      1.1154                 1.1531                 1.4034
 Frc consts  --      1.1655                 1.2149                 1.5432
 IR Inten    --      0.4543                 0.3643                 2.1853

                     34                     35                     36
                      A                      A                      A
 Frequencies --   1391.4326              1395.9901              1401.0339
 Red. masses --      1.3894                 1.5111                 1.6056
 Frc consts  --      1.5850                 1.7351                 1.8569
 IR Inten    --      0.2837                 1.0514                 1.1070

                     37                     38                     39
                      A                      A                      A
 Frequencies --   1412.5888              1417.4714              1484.3511
 Red. masses --      1.2607                 1.2988                 1.0792
 Frc consts  --      1.4821                 1.5375                 1.4010
 IR Inten    --      1.9507                 8.4316                 0.8867

                     40                     41                     42
                      A                      A                      A
 Frequencies --   1486.4781              1496.4708              1498.6211
 Red. masses --      1.0733                 1.0731                 1.0517
 Frc consts  --      1.3973                 1.4159                 1.3916
 IR Inten    --      2.3760                 7.2026                 0.4479

                     43                     44                     45
                      A                      A                      A
 Frequencies --   1499.5370              1503.2669              1507.9251
 Red. masses --      1.0742                 1.0398                 1.0650
 Frc consts  --      1.4231                 1.3844                 1.4268
 IR Inten    --      2.3579                 7.4625                11.0067

                     46                     47                     48
                      A                      A                      A
 Frequencies --   1513.2865              1520.2023              3032.6604
 Red. masses --      1.0645                 1.0851                 1.0634
 Frc consts  --      1.4363                 1.4774                 5.7622
 IR Inten    --      4.0321                 5.4864                10.9123

                     49                     50                     51
                      A                      A                      A
 Frequencies --   3041.2938              3051.0701              3053.8838
 Red. masses --      1.0612                 1.0642                 1.0606
 Frc consts  --      5.7834                 5.8371                 5.8277
 IR Inten    --     24.8050                12.5328                13.1640

                     52                     53                     54
                      A                      A                      A
 Frequencies --   3057.2044              3058.2784              3060.9185
 Red. masses --      1.0430                 1.0641                 1.0425
 Frc consts  --      5.7438                 5.8639                 5.7548
 IR Inten    --     42.9759                16.9255                18.7272

                     55                     56                     57
                      A                      A                      A
 Frequencies --   3072.2057              3080.4821              3090.5510
 Red. masses --      1.0926                 1.0949                 1.1002
 Frc consts  --      6.0758                 6.1215                 6.1914
 IR Inten    --      4.7184                46.7853                35.4529

                     58                     59                     60
                      A                      A                      A
 Frequencies --   3095.3625              3102.9714              3125.4339
 Red. masses --      1.1013                 1.0973                 1.1021
 Frc consts  --      6.2169                 6.2251                 6.3429
 IR Inten    --     54.5580                10.3333                54.4661

                     61                     62                     63
                      A                      A                      A
 Frequencies --   3127.4043              3133.3605              3136.0147
 Red. masses --      1.1013                 1.1012                 1.1013
 Frc consts  --      6.3465                 6.3701                 6.3812
 IR Inten    --     41.9228                34.5811                19.1758

 - Thermochemistry -
 -------------------
 Temperature   298.150 Kelvin.  Pressure   1.00000 Atm.
 Atom     1 has atomic number  6 and mass  12.00000

 Molecular mass:   100.12520 amu.
 Principal axes and moments of inertia in atomic units:
                           1         2         3
     Eigenvalues --   495.616311281.993641546.58241
           X            0.99999  -0.00105   0.00536
           Y            0.00109   0.99997  -0.00711
           Z           -0.00535   0.00711   0.99996
 This molecule is an asymmetric top.
 Rotational symmetry number  1.
 Warning -- assumption of classical behavior for rotation
           may cause significant error
 Rotational temperatures (Kelvin)      0.17476     0.06756     0.05600
 Rotational constants (GHZ):           3.64141     1.40776     1.16692
 Zero-point vibrational energy     575804.5 (Joules/Mol)
                                  137.62057 (Kcal/Mol)
 Warning -- explicit consideration of  11 degrees of freedom as
           vibrations may cause significant error
 Vibrational temperatures:     87.96   142.98   155.06   270.15   309.30
          (Kelvin)            355.73   388.23   431.55   531.24   602.35
                              720.40  1050.26  1080.81  1135.01  1235.49
                             1258.20  1269.94  1369.91  1390.87  1482.52
                             1526.58  1545.47  1554.61  1618.65  1657.20
                             1698.76  1774.01  1818.94  1847.52  1896.00
                             1916.08  1924.04  1965.57  2001.96  2008.52
                             2015.78  2032.40  2039.43  2135.65  2138.71
                             2153.09  2156.18  2157.50  2162.87  2169.57
                             2177.28  2187.23  4363.32  4375.74  4389.81
                             4393.86  4398.64  4400.18  4403.98  4420.22
                             4432.13  4446.61  4453.54  4464.48  4496.80
                             4499.64  4508.21  4512.03

 Zero-point correction=                           0.219312 (Hartree/Particle)
 Thermal correction to Energy=                    0.228635
 Thermal correction to Enthalpy=                  0.229579
 Thermal correction to Gibbs Free Energy=         0.185295
 Sum of electronic and zero-point Energies=           -276.117849
 Sum of electronic and thermal Energies=              -276.108527
 Sum of electronic and thermal Enthalpies=            -276.107583
 Sum of electronic and thermal Free Energies=         -276.151866

                     E (Thermal)             CV                S
                      KCal/Mol        Cal/Mol-Kelvin    Cal/Mol-Kelvin
 Total                  143.470             33.730             93.202
 Electronic               0.000              0.000              0.000
 Translational            0.889              2.981             39.722
 Rotational               0.889              2.981             28.376
 Vibrational            141.693             27.769             25.104
 Vibration     1          0.597              1.973              4.420
 Vibration     2          0.604              1.950              3.466
 Vibration     3          0.606              1.943              3.309
 Vibration     4          0.632              1.857              2.250
 Vibration     5          0.645              1.818              2.001
 Vibration     6          0.661              1.767              1.750
 Vibration     7          0.674              1.729              1.597
 Vibration     8          0.692              1.674              1.417
 Vibration     9          0.742              1.535              1.083
 Vibration    10          0.782              1.430              0.897
 Vibration    11          0.856              1.248              0.656

                           ! Non-Optimized Parameters !
 Normal termination of Gaussian 16 at Sat Sep 28 15:44:15 2019.
