 Gaussian 16, Revision A.03,
 Gaussian 16:  EM64L-G16RevA.03 25-Dec-2016

 ----------------------------------------------------------------------
 #p m062x/cc-pVTZ opt=(calcfc,maxcycles=900,Tight) freq IOP(7/33=1,2/16
 =3) scf=(maxcycle=900)
 ----------------------------------------------------------------------

 ------------------------------
 Gaussian input prepared by ASE
 ------------------------------
 Symbolic Z-matrix:
 Charge =  0 Multiplicity = 1

 SCF Done:  E(RM062X) =  -276.309671928     A.U. after   11 cycles
 SCF Done:  E(RM062X) =  -276.324143152     A.U. after   11 cycles
 SCF Done:  E(RM062X) =  -276.329303375     A.U. after   10 cycles
 SCF Done:  E(RM062X) =  -276.334399734     A.U. after   11 cycles
 SCF Done:  E(RM062X) =  -276.335799837     A.U. after   10 cycles
 SCF Done:  E(RM062X) =  -276.338435145     A.U. after   11 cycles
 SCF Done:  E(RM062X) =  -276.339734445     A.U. after   10 cycles
 SCF Done:  E(RM062X) =  -276.340312826     A.U. after    9 cycles
 SCF Done:  E(RM062X) =  -276.340507571     A.U. after   10 cycles
 SCF Done:  E(RM062X) =  -276.340852477     A.U. after    9 cycles
 SCF Done:  E(RM062X) =  -276.340710282     A.U. after    9 cycles
 SCF Done:  E(RM062X) =  -276.341047650     A.U. after    9 cycles
 SCF Done:  E(RM062X) =  -276.341066961     A.U. after    8 cycles
 SCF Done:  E(RM062X) =  -276.341067604     A.U. after    6 cycles
 SCF Done:  E(RM062X) =  -276.341067735     A.U. after    5 cycles
 SCF Done:  E(RM062X) =  -276.341067745     A.U. after    5 cycles
 SCF Done:  E(RM062X) =  -276.341067745     A.U. after    4 cycles
 SCF Done:  E(RM062X) =  -276.341067746     A.U. after    3 cycles
 Optimization completed.
    -- Stationary point found.
 Normal termination of Gaussian 16 at Sat Sep 28 01:16:00 2019.

 ----------------------------------------------------------------------
 #P Geom=AllCheck Guess=TCheck SCRF=Check Test GenChk RM062X/CC-pVTZ Fr
 eq
 ----------------------------------------------------------------------

 Structure from the checkpoint file:  "/scratch/harms.n/gauss_scrdir/Gau-5807.chk"
 ------------------------------
 Gaussian input prepared by ASE
 ------------------------------
 Charge =  0 Multiplicity = 1

                         Standard orientation:
 ---------------------------------------------------------------------
 Center     Atomic      Atomic             Coordinates (Angstroms)
 Number     Number       Type             X           Y           Z
 ---------------------------------------------------------------------
      1          6           0       -1.272137   -0.341408    0.000003
      2          6           0       -0.000000    0.496230   -0.000007
      3          6           0        1.272136   -0.341410   -0.000006
      4          6           0       -2.544927    0.496193   -0.000007
      5          6           0        2.544925    0.496192    0.000013
      6          6           0       -3.807555   -0.355887    0.000006
      7          6           0        3.807558   -0.355886   -0.000003
      8          1           0       -2.542058    1.152079   -0.874510
      9          1           0       -2.542056    1.152102    0.874479
     10          1           0       -1.273203   -0.999101    0.875083
     11          1           0       -1.273204   -0.999129   -0.875056
     12          1           0        0.000002    1.153676    0.875134
     13          1           0       -0.000001    1.153669   -0.875154
     14          1           0        1.273208   -0.999107   -0.875083
     15          1           0        1.273195   -0.999127    0.875056
     16          1           0        2.542055    1.152109   -0.874467
     17          1           0        2.542053    1.152071    0.874522
     18          1           0       -3.840503   -0.999608   -0.880267
     19          1           0       -3.840506   -0.999579    0.880298
     20          1           0       -4.708027    0.257489   -0.000006
     21          1           0        3.840518   -0.999563   -0.880307
     22          1           0        3.840501   -0.999621    0.880259
     23          1           0        4.708028    0.257494    0.000026
 ---------------------------------------------------------------------

 SCF Done:  E(RM062X) =  -276.341067746     A.U. after    1 cycles

 The electronic state is 1-A.
 Alpha  occ. eigenvalues --  -10.52616 -10.52616 -10.52461 -10.52431 -10.52406
 Alpha  occ. eigenvalues --  -10.51937 -10.51937  -0.91174  -0.87934  -0.82787
 Alpha  occ. eigenvalues --   -0.76288  -0.69567  -0.65768  -0.65588  -0.55586
 Alpha  occ. eigenvalues --   -0.52677  -0.50143  -0.49311  -0.48397  -0.46532
 Alpha  occ. eigenvalues --   -0.43752  -0.43098  -0.41964  -0.40035  -0.39447
 Alpha  occ. eigenvalues --   -0.38127  -0.38126  -0.37775  -0.35830
 Alpha virt. eigenvalues --    0.06914   0.07877   0.09472   0.09477   0.09908
 Alpha virt. eigenvalues --    0.12195   0.12672   0.13621   0.15347   0.15489
 Alpha virt. eigenvalues --    0.16391   0.17061   0.17137   0.17317   0.19257

 Mulliken charges:
               1
     1  C   -0.244988
     2  C   -0.251738
     3  C   -0.244989
     4  C   -0.229935
     5  C   -0.229935
     6  C   -0.352647
     7  C   -0.352646
     8  H    0.121093
     9  H    0.121093
    10  H    0.126246
    11  H    0.126246
    12  H    0.127132
    13  H    0.127132
    14  H    0.126246
    15  H    0.126246
    16  H    0.121093
    17  H    0.121093
    18  H    0.108983
    19  H    0.108984
    20  H    0.113662
    21  H    0.108983
    22  H    0.108983
    23  H    0.113662
 Sum of Mulliken charges =  -0.00000

 Dipole moment (field-independent basis, Debye):
    X=             -0.0000    Y=              0.0845    Z=              0.0000  Tot=              0.0845
 Quadrupole moment (field-independent basis, Debye-Ang):
   XX=            -49.9214   YY=            -49.4745   ZZ=            -47.7924
   XY=              0.0000   XZ=              0.0000   YZ=             -0.0000

  Exact polarizability: 106.885  -0.000  78.818  -0.000   0.000  73.912
 Approx polarizability:  97.866  -0.000  97.466  -0.000   0.000  96.411

                      1                      2                      3
                      A                      A                      A
 Frequencies --     65.6183                74.3969                99.7798
 Red. masses --      2.7941                 1.5090                 2.9874
 Frc consts  --      0.0071                 0.0049                 0.0175
 IR Inten    --      0.0037                 0.0000                 0.0000

                      4                      5                      6
                      A                      A                      A
 Frequencies --    144.5203               145.1556               244.6469
 Red. masses --      1.6601                 2.2728                 1.1033
 Frc consts  --      0.0204                 0.0282                 0.0389
 IR Inten    --      0.0040                 0.0000                 0.0000

                      7                      8                      9
                      A                      A                      A
 Frequencies --    246.7531               248.3197               306.7877
 Red. masses --      2.6697                 1.1512                 3.6165
 Frc consts  --      0.0958                 0.0418                 0.2005
 IR Inten    --      0.0003                 0.0005                 0.0003

                     10                     11                     12
                      A                      A                      A
 Frequencies --    421.4727               487.5254               731.4125
 Red. masses --      2.6123                 2.8754                 1.0597
 Frc consts  --      0.2734                 0.4027                 0.3340
 IR Inten    --      0.0250                 0.0845                 4.9076

                     13                     14                     15
                      A                      A                      A
 Frequencies --    737.9953               775.1714               850.5334
 Red. masses --      1.0830                 1.1326                 1.1772
 Frc consts  --      0.3475                 0.4010                 0.5017
 IR Inten    --      0.0000                 1.1459                 0.0000

                     16                     17                     18
                      A                      A                      A
 Frequencies --    896.7055               928.0719               943.3092
 Red. masses --      1.9684                 1.5824                 1.1785
 Frc consts  --      0.9325                 0.8030                 0.6178
 IR Inten    --      2.4693                 1.2319                 0.6205

                     19                     20                     21
                      A                      A                      A
 Frequencies --   1020.8603              1031.4216              1062.5017
 Red. masses --      3.9702                 1.1081                 2.9298
 Frc consts  --      2.4378                 0.6946                 1.9487
 IR Inten    --      0.0026                 0.0000                 0.0855

                     22                     23                     24
                      A                      A                      A
 Frequencies --   1087.6647              1090.0506              1101.4530
 Red. masses --      1.9763                 2.2632                 1.7965
 Frc consts  --      1.3775                 1.5844                 1.2841
 IR Inten    --      1.1290                 0.6806                 2.2814

                     25                     26                     27
                      A                      A                      A
 Frequencies --   1169.4870              1208.0120              1244.4725
 Red. masses --      2.7815                 1.8852                 1.4592
 Frc consts  --      2.2414                 1.6209                 1.3315
 IR Inten    --      0.6623                 0.0438                 0.0000

                     28                     29                     30
                      A                      A                      A
 Frequencies --   1258.6009              1295.5571              1318.0841
 Red. masses --      1.3144                 1.2652                 1.3366
 Frc consts  --      1.2267                 1.2512                 1.3682
 IR Inten    --      1.3224                 0.1654                 0.0349

                     31                     32                     33
                      A                      A                      A
 Frequencies --   1326.5864              1334.0994              1340.1051
 Red. masses --      1.0564                 1.1254                 1.0821
 Frc consts  --      1.0954                 1.1801                 1.1449
 IR Inten    --      0.0000                 0.0000                 0.8254

                     34                     35                     36
                      A                      A                      A
 Frequencies --   1370.8535              1404.9761              1411.3636
 Red. masses --      1.4313                 1.5770                 1.6095
 Frc consts  --      1.5848                 1.8341                 1.8890
 IR Inten    --      1.1992                 0.0306                 1.9315

                     37                     38                     39
                      A                      A                      A
 Frequencies --   1414.8381              1417.5358              1486.8160
 Red. masses --      1.2958                 1.4029                 1.0746
 Frc consts  --      1.5283                 1.6609                 1.3996
 IR Inten    --      3.8277                 0.7177                 0.1800

                     40                     41                     42
                      A                      A                      A
 Frequencies --   1486.8181              1492.1425              1497.6561
 Red. masses --      1.0753                 1.0626                 1.0624
 Frc consts  --      1.4006                 1.3940                 1.4040
 IR Inten    --      0.0013                 0.0798                 1.2066

                     43                     44                     45
                      A                      A                      A
 Frequencies --   1503.3426              1503.4118              1505.3820
 Red. masses --      1.0387                 1.0391                 1.0765
 Frc consts  --      1.3832                 1.3837                 1.4373
 IR Inten    --      0.0009                14.6221                 0.1657

                     46                     47                     48
                      A                      A                      A
 Frequencies --   1512.6561              1516.7499              3029.9134
 Red. masses --      1.0868                 1.0941                 1.0584
 Frc consts  --      1.4652                 1.4830                 5.7248
 IR Inten    --      1.2186                13.1695                 0.5693

                     49                     50                     51
                      A                      A                      A
 Frequencies --   3031.6493              3039.4790              3049.4019
 Red. masses --      1.0585                 1.0594                 1.0593
 Frc consts  --      5.7319                 5.7666                 5.8039
 IR Inten    --      0.0263                17.8868                 0.6622

                     52                     53                     54
                      A                      A                      A
 Frequencies --   3051.4415              3053.6408              3057.4461
 Red. masses --      1.0587                 1.0998                 1.0363
 Frc consts  --      5.8083                 6.0422                 5.7078
 IR Inten    --     85.0199                 0.1969                36.7057

                     55                     56                     57
                      A                      A                      A
 Frequencies --   3057.7867              3061.2535              3074.9768
 Red. masses --      1.0369                 1.1017                 1.1040
 Frc consts  --      5.7122                 6.0829                 6.1504
 IR Inten    --     48.0251                 0.0000                 0.4026

                     58                     59                     60
                      A                      A                      A
 Frequencies --   3087.3705              3095.1880              3124.4599
 Red. masses --      1.1052                 1.1053                 1.1028
 Frc consts  --      6.2067                 6.2390                 6.3432
 IR Inten    --      0.0000                80.5274                 0.0056

                     61                     62                     63
                      A                      A                      A
 Frequencies --   3124.6825              3133.1823              3133.2944
 Red. masses --      1.1028                 1.1016                 1.1015
 Frc consts  --      6.3438                 6.3714                 6.3713
 IR Inten    --     95.1003                27.9058                33.6355

 - Thermochemistry -
 -------------------
 Temperature   298.150 Kelvin.  Pressure   1.00000 Atm.
 Atom     1 has atomic number  6 and mass  12.00000

 Molecular mass:   100.12520 amu.
 Principal axes and moments of inertia in atomic units:
                           1         2         3
     Eigenvalues --   149.108932463.247532534.95410
           X            1.00000   0.00000  -0.00000
           Y           -0.00000   1.00000   0.00000
           Z            0.00000  -0.00000   1.00000
 This molecule is an asymmetric top.
 Rotational symmetry number  1.
 Rotational temperatures (Kelvin)      0.58088     0.03516     0.03417
 Rotational constants (GHZ):          12.10351     0.73267     0.71194
 Zero-point vibrational energy     574009.2 (Joules/Mol)
                                  137.19149 (Kcal/Mol)
 Warning -- explicit consideration of  11 degrees of freedom as
           vibrations may cause significant error
 Vibrational temperatures:     94.41   107.04   143.56   207.93   208.85
          (Kelvin)            351.99   355.02   357.28   441.40   606.41
                              701.44  1052.34  1061.81  1115.30  1223.73
                             1290.16  1335.29  1357.21  1468.79  1483.99
                             1528.70  1564.91  1568.34  1584.75  1682.63
                             1738.06  1790.52  1810.85  1864.02  1896.43
                             1908.66  1919.47  1928.11  1972.35  2021.45
                             2030.64  2035.64  2039.52  2139.20  2139.20
                             2146.86  2154.79  2162.97  2163.07  2165.91
                             2176.37  2182.26  4359.37  4361.87  4373.13
                             4387.41  4390.34  4393.51  4398.98  4399.47
                             4404.46  4424.21  4442.04  4453.29  4495.40
                             4495.72  4507.95  4508.11

 Zero-point correction=                           0.218629 (Hartree/Particle)
 Thermal correction to Energy=                    0.228362
 Thermal correction to Enthalpy=                  0.229306
 Thermal correction to Gibbs Free Energy=         0.183817
 Sum of electronic and zero-point Energies=           -276.122439
 Sum of electronic and thermal Energies=              -276.112706
 Sum of electronic and thermal Enthalpies=            -276.111761
 Sum of electronic and thermal Free Energies=         -276.157251

                     E (Thermal)             CV                S
                      KCal/Mol        Cal/Mol-Kelvin    Cal/Mol-Kelvin
 Total                  143.299             34.063             95.740
 Electronic               0.000              0.000              0.000
 Translational            0.889              2.981             39.722
 Rotational               0.889              2.981             28.323
 Vibrational            141.522             28.102             27.696
 Vibration     1          0.597              1.971              4.281
 Vibration     2          0.599              1.966              4.034
 Vibration     3          0.604              1.949              3.459
 Vibration     4          0.616              1.909              2.743
 Vibration     5          0.617              1.908              2.735
 Vibration     6          0.660              1.772              1.769
 Vibration     7          0.661              1.768              1.754
 Vibration     8          0.662              1.766              1.742
 Vibration     9          0.697              1.661              1.380
 Vibration    10          0.784              1.424              0.887
 Vibration    11          0.843              1.278              0.690

 Optimization completed.
    -- Stationary point found.
 Normal termination of Gaussian 16 at Sat Sep 28 03:48:12 2019.
