 Gaussian 16, Revision A.03,
 Gaussian 16:  EM64L-G16RevA.03 25-Dec-2016

 ----------------------------------------------------------------------
 #p m062x/cc-pVTZ opt=(calcfc,maxcycles=900,Tight) freq IOP(7/33=1,2/16
 =3) scf=(maxcycle=900)
 ----------------------------------------------------------------------

 ------------------------------
 Gaussian input prepared by ASE
 ------------------------------
 Symbolic Z-matrix:
 Charge =  0 Multiplicity = 1

 SCF Done:  E(RM062X) =  -276.309538892     A.U. after   11 cycles
 SCF Done:  E(RM062X) =  -276.324331555     A.U. after   11 cycles
 SCF Done:  E(RM062X) =  -276.329341420     A.U. after   12 cycles
 SCF Done:  E(RM062X) =  -276.333395513     A.U. after   10 cycles
 SCF Done:  E(RM062X) =  -276.337236117     A.U. after   11 cycles
 SCF Done:  E(RM062X) =  -276.338402185     A.U. after   11 cycles
 SCF Done:  E(RM062X) =  -276.338777726     A.U. after   10 cycles
 SCF Done:  E(RM062X) =  -276.339102019     A.U. after   10 cycles
 SCF Done:  E(RM062X) =  -276.339202655     A.U. after   10 cycles
 SCF Done:  E(RM062X) =  -276.339503270     A.U. after    9 cycles
 SCF Done:  E(RM062X) =  -276.339570056     A.U. after    6 cycles
 SCF Done:  E(RM062X) =  -276.339570412     A.U. after    6 cycles
 SCF Done:  E(RM062X) =  -276.339570058     A.U. after    6 cycles
 SCF Done:  E(RM062X) =  -276.339570448     A.U. after    6 cycles
 SCF Done:  E(RM062X) =  -276.339570058     A.U. after    6 cycles
 SCF Done:  E(RM062X) =  -276.339570454     A.U. after    6 cycles
 SCF Done:  E(RM062X) =  -276.339570058     A.U. after    6 cycles
 SCF Done:  E(RM062X) =  -276.339570121     A.U. after    6 cycles
 SCF Done:  E(RM062X) =  -276.339570058     A.U. after    6 cycles
 Optimization completed on the basis of negligible forces.
    -- Stationary point found.
 Normal termination of Gaussian 16 at Sat Sep 28 15:04:12 2019.

 ----------------------------------------------------------------------
 #P Geom=AllCheck Guess=TCheck SCRF=Check Test GenChk RM062X/CC-pVTZ Fr
 eq
 ----------------------------------------------------------------------

 Structure from the checkpoint file:  "/scratch/harms.n/gauss_scrdir/Gau-46611.chk"
 ------------------------------
 Gaussian input prepared by ASE
 ------------------------------
 Charge =  0 Multiplicity = 1

                         Standard orientation:
 ---------------------------------------------------------------------
 Center     Atomic      Atomic             Coordinates (Angstroms)
 Number     Number       Type             X           Y           Z
 ---------------------------------------------------------------------
      1          6           0       -1.263541   -0.801320   -0.193333
      2          6           0        0.240146   -0.677468   -0.425437
      3          6           0        0.981490    0.011610    0.717812
      4          6           0       -1.980772    0.537162   -0.050704
      5          6           0        2.501041   -0.098948    0.614291
      6          6           0       -3.491768    0.373688    0.054736
      7          6           0        3.068416    0.546956   -0.645219
      8          1           0       -1.734872    1.167811   -0.910038
      9          1           0       -1.610555    1.061767    0.832329
     10          1           0       -1.443665   -1.399886    0.705478
     11          1           0       -1.711972   -1.352884   -1.024201
     12          1           0        0.410480   -0.132258   -1.357722
     13          1           0        0.665348   -1.675281   -0.569546
     14          1           0        0.652007   -0.425220    1.665318
     15          1           0        0.705619    1.069143    0.752439
     16          1           0        2.952743    0.366296    1.492583
     17          1           0        2.785751   -1.154213    0.642540
     18          1           0       -3.892514   -0.114106   -0.835049
     19          1           0       -3.754267   -0.243736    0.915256
     20          1           0       -3.994795    1.333699    0.166267
     21          1           0        2.749612    1.588341   -0.721978
     22          1           0        2.733208    0.030560   -1.544506
     23          1           0        4.157798    0.529884   -0.642041
 ---------------------------------------------------------------------

 SCF Done:  E(RM062X) =  -276.339570058     A.U. after    1 cycles

 The electronic state is 1-A.
 Alpha  occ. eigenvalues --  -10.52636 -10.52571 -10.52461 -10.52432 -10.52401
 Alpha  occ. eigenvalues --  -10.51927 -10.51896  -0.91273  -0.87722  -0.82362
 Alpha  occ. eigenvalues --   -0.76287  -0.70735  -0.66865  -0.63479  -0.54580
 Alpha  occ. eigenvalues --   -0.52367  -0.51572  -0.49522  -0.47925  -0.46472
 Alpha  occ. eigenvalues --   -0.44855  -0.42596  -0.42049  -0.40332  -0.39344
 Alpha  occ. eigenvalues --   -0.38695  -0.37314  -0.36548  -0.36292
 Alpha virt. eigenvalues --    0.06977   0.08041   0.09032   0.09140   0.10875
 Alpha virt. eigenvalues --    0.12391   0.12727   0.13946   0.14671   0.15286
 Alpha virt. eigenvalues --    0.15919   0.16176   0.17154   0.18415   0.18914

 Mulliken charges:
               1
     1  C   -0.264997
     2  C   -0.280910
     3  C   -0.272504
     4  C   -0.240164
     5  C   -0.244602
     6  C   -0.353862
     7  C   -0.368061
     8  H    0.127179
     9  H    0.132130
    10  H    0.132873
    11  H    0.131311
    12  H    0.142564
    13  H    0.139506
    14  H    0.138060
    15  H    0.143641
    16  H    0.125716
    17  H    0.124791
    18  H    0.109406
    19  H    0.109312
    20  H    0.113614
    21  H    0.116005
    22  H    0.120551
    23  H    0.118440
 Sum of Mulliken charges =  -0.00000

 Dipole moment (field-independent basis, Debye):
    X=              0.0532    Y=              0.0059    Z=              0.0461  Tot=              0.0706
 Quadrupole moment (field-independent basis, Debye-Ang):
   XX=            -49.7180   YY=            -48.6265   ZZ=            -48.6020
   XY=             -0.2161   XZ=              0.3441   YZ=              0.0655

  Exact polarizability: 102.151   0.129  77.411  -0.677  -0.171  76.961
 Approx polarizability:  98.490   0.007  96.963  -0.222  -0.242  96.638

                      1                      2                      3
                      A                      A                      A
 Frequencies --     50.1832                79.5684               116.7510
 Red. masses --      2.7307                 1.6834                 2.5730
 Frc consts  --      0.0041                 0.0063                 0.0207
 IR Inten    --      0.0025                 0.0090                 0.0146

                      4                      5                      6
                      A                      A                      A
 Frequencies --    131.5950               235.2899               239.3061
 Red. masses --      1.8570                 1.4582                 1.2777
 Frc consts  --      0.0189                 0.0476                 0.0431
 IR Inten    --      0.0202                 0.0203                 0.0083

                      7                      8                      9
                      A                      A                      A
 Frequencies --    267.5235               288.8973               308.1077
 Red. masses --      1.5386                 2.0300                 1.8930
 Frc consts  --      0.0649                 0.0998                 0.1059
 IR Inten    --      0.0045                 0.0127                 0.1889

                     10                     11                     12
                      A                      A                      A
 Frequencies --    415.1614               538.8679               735.4898
 Red. masses --      2.3974                 2.2334                 1.1921
 Frc consts  --      0.2435                 0.3821                 0.3800
 IR Inten    --      0.2396                 0.0659                 2.3511

                     13                     14                     15
                      A                      A                      A
 Frequencies --    759.3469               787.3428               842.9632
 Red. masses --      1.1559                 1.2696                 1.5110
 Frc consts  --      0.3927                 0.4637                 0.6326
 IR Inten    --      3.2071                 0.8342                 0.7634

                     16                     17                     18
                      A                      A                      A
 Frequencies --    868.4435               903.8833               951.1736
 Red. masses --      1.7471                 1.8308                 1.3023
 Frc consts  --      0.7764                 0.8813                 0.6942
 IR Inten    --      0.3265                 1.8901                 3.0705

                     19                     20                     21
                      A                      A                      A
 Frequencies --    966.0504              1039.8395              1051.2942
 Red. masses --      1.6121                 1.7059                 1.5130
 Frc consts  --      0.8864                 1.0868                 0.9852
 IR Inten    --      0.9466                 1.3895                 0.3701

                     22                     23                     24
                      A                      A                      A
 Frequencies --   1071.5254              1090.1979              1118.2552
 Red. masses --      1.5964                 2.2508                 2.0614
 Frc consts  --      1.0799                 1.5761                 1.5188
 IR Inten    --      0.6191                 0.3646                 0.2017

                     25                     26                     27
                      A                      A                      A
 Frequencies --   1161.3647              1185.5294              1239.5239
 Red. masses --      2.0455                 2.0883                 1.4649
 Frc consts  --      1.6255                 1.7293                 1.3261
 IR Inten    --      0.1189                 0.7817                 0.2917

                     28                     29                     30
                      A                      A                      A
 Frequencies --   1269.2246              1305.2045              1308.6230
 Red. masses --      1.3615                 1.2792                 1.2854
 Frc consts  --      1.2922                 1.2840                 1.2969
 IR Inten    --      0.7274                 0.3288                 1.3567

                     31                     32                     33
                      A                      A                      A
 Frequencies --   1327.8430              1336.4639              1351.8929
 Red. masses --      1.1400                 1.2002                 1.1747
 Frc consts  --      1.1843                 1.2630                 1.2649
 IR Inten    --      0.7425                 1.2682                 0.2395

                     34                     35                     36
                      A                      A                      A
 Frequencies --   1379.7859              1403.6128              1406.4462
 Red. masses --      1.3980                 1.6486                 1.4963
 Frc consts  --      1.5681                 1.9137                 1.7439
 IR Inten    --      3.3017                 0.3532                 0.6043

                     37                     38                     39
                      A                      A                      A
 Frequencies --   1413.7641              1417.7534              1482.2187
 Red. masses --      1.2642                 1.3379                 1.0729
 Frc consts  --      1.4888                 1.5844                 1.3888
 IR Inten    --      3.8074                 4.7627                 1.4705

                     40                     41                     42
                      A                      A                      A
 Frequencies --   1489.6516              1494.9025              1498.3168
 Red. masses --      1.0756                 1.0595                 1.0637
 Frc consts  --      1.4062                 1.3950                 1.4069
 IR Inten    --      0.7653                 1.4193                 2.3647

                     43                     44                     45
                      A                      A                      A
 Frequencies --   1501.9421              1504.3204              1506.5965
 Red. masses --      1.0949                 1.0404                 1.0606
 Frc consts  --      1.4553                 1.3871                 1.4184
 IR Inten    --      3.1316                 7.9516                 5.7879

                     46                     47                     48
                      A                      A                      A
 Frequencies --   1513.1546              1513.5560              3033.6377
 Red. masses --      1.0849                 1.0630                 1.0604
 Frc consts  --      1.4635                 1.4348                 5.7496
 IR Inten    --      5.5887                 6.9196                 6.0606

                     49                     50                     51
                      A                      A                      A
 Frequencies --   3037.3007              3044.9589              3049.1515
 Red. masses --      1.0616                 1.0619                 1.0626
 Frc consts  --      5.7700                 5.8007                 5.8208
 IR Inten    --      4.4068                50.8422                29.3767

                     52                     53                     54
                      A                      A                      A
 Frequencies --   3049.6870              3057.0955              3058.5370
 Red. masses --      1.0644                 1.0368                 1.0383
 Frc consts  --      5.8328                 5.7088                 5.7230
 IR Inten    --     13.7974                39.1539                21.5748

                     55                     56                     57
                      A                      A                      A
 Frequencies --   3067.8127              3069.8908              3085.2654
 Red. masses --      1.0969                 1.0975                 1.1003
 Frc consts  --      6.0822                 6.0938                 6.1706
 IR Inten    --     11.4467                 1.6316                21.2689

                     58                     59                     60
                      A                      A                      A
 Frequencies --   3094.5137              3096.6245              3124.5443
 Red. masses --      1.1020                 1.1028                 1.1027
 Frc consts  --      6.2176                 6.2305                 6.3430
 IR Inten    --     28.8980                61.3381                44.4431

                     61                     62                     63
                      A                      A                      A
 Frequencies --   3126.3672              3133.1908              3136.8810
 Red. masses --      1.1005                 1.1015                 1.1019
 Frc consts  --      6.3377                 6.3710                 6.3882
 IR Inten    --     36.9206                30.8432                36.3659

 - Thermochemistry -
 -------------------
 Temperature   298.150 Kelvin.  Pressure   1.00000 Atm.
 Atom     1 has atomic number  6 and mass  12.00000

 Molecular mass:   100.12520 amu.
 Principal axes and moments of inertia in atomic units:
                           1         2         3
     Eigenvalues --   261.918591979.931561994.73405
           X            0.99999   0.00077  -0.00387
           Y           -0.00094   0.99896  -0.04566
           Z            0.00383   0.04566   0.99895
 This molecule is an asymmetric top.
 Rotational symmetry number  1.
 Rotational temperatures (Kelvin)      0.33069     0.04375     0.04342
 Rotational constants (GHZ):           6.89047     0.91152     0.90475
 Zero-point vibrational energy     575010.3 (Joules/Mol)
                                  137.43075 (Kcal/Mol)
 Warning -- explicit consideration of  11 degrees of freedom as
           vibrations may cause significant error
 Vibrational temperatures:     72.20   114.48   167.98   189.34   338.53
          (Kelvin)            344.31   384.91   415.66   443.30   597.32
                              775.31  1058.21  1092.53  1132.81  1212.84
                             1249.50  1300.49  1368.53  1389.93  1496.10
                             1512.58  1541.69  1568.55  1608.92  1670.94
                             1705.71  1783.40  1826.13  1877.90  1882.82
                             1910.47  1922.87  1945.07  1985.20  2019.49
                             2023.56  2034.09  2039.83  2132.58  2143.28
                             2150.83  2155.74  2160.96  2164.38  2167.66
                             2177.09  2177.67  4364.73  4370.00  4381.02
                             4387.05  4387.82  4398.48  4400.55  4413.90
                             4416.89  4439.01  4452.32  4455.35  4495.52
                             4498.15  4507.96  4513.27

 Zero-point correction=                           0.219010 (Hartree/Particle)
 Thermal correction to Energy=                    0.228512
 Thermal correction to Enthalpy=                  0.229456
 Thermal correction to Gibbs Free Energy=         0.184429
 Sum of electronic and zero-point Energies=           -276.120560
 Sum of electronic and thermal Energies=              -276.111058
 Sum of electronic and thermal Enthalpies=            -276.110114
 Sum of electronic and thermal Free Energies=         -276.155141

                     E (Thermal)             CV                S
                      KCal/Mol        Cal/Mol-Kelvin    Cal/Mol-Kelvin
 Total                  143.393             33.826             94.768
 Electronic               0.000              0.000              0.000
 Translational            0.889              2.981             39.722
 Rotational               0.889              2.981             28.427
 Vibrational            141.616             27.864             26.619
 Vibration     1          0.595              1.978              4.810
 Vibration     2          0.600              1.963              3.901
 Vibration     3          0.608              1.935              3.153
 Vibration     4          0.612              1.922              2.923
 Vibration     5          0.655              1.787              1.838
 Vibration     6          0.657              1.780              1.808
 Vibration     7          0.673              1.733              1.612
 Vibration     8          0.685              1.694              1.480
 Vibration     9          0.698              1.658              1.372
 Vibration    10          0.779              1.437              0.909
 Vibration    11          0.894              1.164              0.568

 Optimization completed.
    -- Stationary point found.
 Normal termination of Gaussian 16 at Sat Sep 28 18:34:07 2019.
