 Gaussian 16, Revision A.03,
 Gaussian 16:  EM64L-G16RevA.03 25-Dec-2016

 ----------------------------------------------------------------------
 #p m062x/cc-pVTZ opt=(calcfc,maxcycles=900,Tight) freq IOP(7/33=1,2/16
 =3) scf=(maxcycle=900)
 ----------------------------------------------------------------------

 ------------------------------
 Gaussian input prepared by ASE
 ------------------------------
 Symbolic Z-matrix:
 Charge =  0 Multiplicity = 1

 SCF Done:  E(RM062X) =  -276.302199790     A.U. after   11 cycles
 SCF Done:  E(RM062X) =  -276.319251008     A.U. after   11 cycles
 SCF Done:  E(RM062X) =  -276.320188518     A.U. after   10 cycles
 SCF Done:  E(RM062X) =  -276.320558950     A.U. after   10 cycles
 SCF Done:  E(RM062X) =  -276.321338566     A.U. after    9 cycles
 SCF Done:  E(RM062X) =  -276.327426465     A.U. after   10 cycles
 SCF Done:  E(RM062X) =  -276.299057664     A.U. after   11 cycles
 SCF Done:  E(RM062X) =  -276.333389294     A.U. after   10 cycles
 SCF Done:  E(RM062X) =  -276.312513818     A.U. after   11 cycles
 SCF Done:  E(RM062X) =  -276.335608309     A.U. after   10 cycles
 SCF Done:  E(RM062X) =  -276.340263904     A.U. after    8 cycles
 SCF Done:  E(RM062X) =  -276.340264754     A.U. after    6 cycles
 SCF Done:  E(RM062X) =  -276.340264802     A.U. after    5 cycles
 SCF Done:  E(RM062X) =  -276.340264810     A.U. after    5 cycles
 SCF Done:  E(RM062X) =  -276.340264804     A.U. after    5 cycles
 SCF Done:  E(RM062X) =  -276.340264795     A.U. after    4 cycles
 SCF Done:  E(RM062X) =  -276.340264795     A.U. after    3 cycles
 SCF Done:  E(RM062X) =  -276.340264803     A.U. after    5 cycles
 SCF Done:  E(RM062X) =  -276.340264796     A.U. after    4 cycles
 Optimization completed.
    -- Stationary point found.
 Normal termination of Gaussian 16 at Sun Sep 29 20:30:38 2019.

 ----------------------------------------------------------------------
 #P Geom=AllCheck Guess=TCheck SCRF=Check Test GenChk RM062X/CC-pVTZ Fr
 eq
 ----------------------------------------------------------------------

 Structure from the checkpoint file:  "/scratch/harms.n/gauss_scrdir/Gau-31574.chk"
 ------------------------------
 Gaussian input prepared by ASE
 ------------------------------
 Charge =  0 Multiplicity = 1

                         Standard orientation:
 ---------------------------------------------------------------------
 Center     Atomic      Atomic             Coordinates (Angstroms)
 Number     Number       Type             X           Y           Z
 ---------------------------------------------------------------------
      1          6           0        1.294047   -0.857790   -0.170628
      2          6           0        0.180724    0.102494    0.233457
      3          6           0       -1.205010   -0.403958   -0.146308
      4          6           0        2.682025   -0.438386    0.308319
      5          6           0       -2.323732    0.557013    0.236343
      6          6           0        3.143727    0.898366   -0.262213
      7          6           0       -3.702399    0.033749   -0.145510
      8          1           0        3.400682   -1.213264    0.034572
      9          1           0        2.683555   -0.388793    1.400551
     10          1           0        1.303412   -0.956020   -1.260942
     11          1           0        1.063261   -1.850484    0.225175
     12          1           0        0.341117    1.077707   -0.233589
     13          1           0        0.222259    0.268839    1.315244
     14          1           0       -1.381485   -1.372287    0.332640
     15          1           0       -1.240146   -0.587118   -1.225101
     16          1           0       -2.284193    0.742026    1.313010
     17          1           0       -2.148329    1.521763   -0.246742
     18          1           0        3.095178    0.889906   -1.352863
     19          1           0        2.522395    1.720896    0.091139
     20          1           0        4.171945    1.116172    0.024879
     21          1           0       -3.906515   -0.917222    0.348755
     22          1           0       -3.768954   -0.133242   -1.221625
     23          1           0       -4.490467    0.732196    0.134137
 ---------------------------------------------------------------------

 SCF Done:  E(RM062X) =  -276.340264796     A.U. after    1 cycles

 The electronic state is 1-A.
 Alpha  occ. eigenvalues --  -10.52636 -10.52609 -10.52452 -10.52433 -10.52383
 Alpha  occ. eigenvalues --  -10.51933 -10.51898  -0.91199  -0.87871  -0.82499
 Alpha  occ. eigenvalues --   -0.76328  -0.70507  -0.65933  -0.64506  -0.55157
 Alpha  occ. eigenvalues --   -0.52219  -0.51722  -0.49229  -0.47651  -0.46406
 Alpha  occ. eigenvalues --   -0.44694  -0.42879  -0.41529  -0.40598  -0.39255
 Alpha  occ. eigenvalues --   -0.38292  -0.37713  -0.37473  -0.35859
 Alpha virt. eigenvalues --    0.06935   0.07865   0.09217   0.09423   0.10508
 Alpha virt. eigenvalues --    0.12265   0.12664   0.13777   0.14818   0.15403
 Alpha virt. eigenvalues --    0.16123   0.16529   0.17162   0.18278   0.18648

 Mulliken charges:
               1
     1  C   -0.262594
     2  C   -0.265428
     3  C   -0.246230
     4  C   -0.240397
     5  C   -0.229147
     6  C   -0.368115
     7  C   -0.353219
     8  H    0.126013
     9  H    0.124721
    10  H    0.135002
    11  H    0.131255
    12  H    0.136470
    13  H    0.131553
    14  H    0.126727
    15  H    0.126701
    16  H    0.121046
    17  H    0.121067
    18  H    0.115660
    19  H    0.119041
    20  H    0.118294
    21  H    0.108999
    22  H    0.108942
    23  H    0.113639
 Sum of Mulliken charges =  -0.00000

 Dipole moment (field-independent basis, Debye):
    X=              0.0460    Y=             -0.0143    Z=              0.0438  Tot=              0.0651
 Quadrupole moment (field-independent basis, Debye-Ang):
   XX=            -49.5102   YY=            -49.1323   ZZ=            -48.2874
   XY=             -0.4604   XZ=             -0.1761   YZ=             -0.2860

  Exact polarizability: 103.518   0.753  79.288   0.526   0.473  75.068
 Approx polarizability:  97.984   0.291  96.929   0.175   0.268  96.909

                      1                      2                      3
                      A                      A                      A
 Frequencies --     47.4678                79.5752               115.5108
 Red. masses --      1.9312                 2.2587                 2.4294
 Frc consts  --      0.0026                 0.0084                 0.0191
 IR Inten    --      0.0111                 0.0047                 0.0088

                      4                      5                      6
                      A                      A                      A
 Frequencies --    134.5725               147.4516               244.8251
 Red. masses --      1.8987                 1.7050                 1.4758
 Frc consts  --      0.0203                 0.0218                 0.0521
 IR Inten    --      0.0070                 0.0090                 0.0043

                      7                      8                      9
                      A                      A                      A
 Frequencies --    246.4240               288.7375               357.9596
 Red. masses --      1.2321                 1.5914                 2.7842
 Frc consts  --      0.0441                 0.0782                 0.2102
 IR Inten    --      0.0007                 0.0020                 0.0352

                     10                     11                     12
                      A                      A                      A
 Frequencies --    396.9276               496.5582               729.0086
 Red. masses --      2.6685                 2.2911                 1.0718
 Frc consts  --      0.2477                 0.3328                 0.3356
 IR Inten    --      0.0480                 0.4047                 4.1213

                     13                     14                     15
                      A                      A                      A
 Frequencies --    747.2046               781.0870               844.2913
 Red. masses --      1.1477                 1.1703                 1.2640
 Frc consts  --      0.3775                 0.4207                 0.5308
 IR Inten    --      0.9767                 2.3149                 0.9099

                     16                     17                     18
                      A                      A                      A
 Frequencies --    884.7038               920.1324               947.3497
 Red. masses --      2.2261                 1.7104                 1.2490
 Frc consts  --      1.0266                 0.8532                 0.6604
 IR Inten    --      1.4506                 1.3237                 0.4894

                     19                     20                     21
                      A                      A                      A
 Frequencies --    985.2673              1032.8275              1052.6832
 Red. masses --      1.8776                 1.1972                 2.8323
 Frc consts  --      1.0739                 0.7525                 1.8492
 IR Inten    --      0.8638                 0.2367                 0.0852

                     22                     23                     24
                      A                      A                      A
 Frequencies --   1083.2118              1097.4235              1108.5667
 Red. masses --      2.0724                 1.8717                 1.9876
 Frc consts  --      1.4327                 1.3281                 1.4392
 IR Inten    --      0.1383                 1.0083                 1.1114

                     25                     26                     27
                      A                      A                      A
 Frequencies --   1163.1027              1198.3033              1239.0714
 Red. masses --      2.4565                 1.9570                 1.4777
 Frc consts  --      1.9579                 1.6557                 1.3367
 IR Inten    --      1.1628                 0.3678                 0.4724

                     28                     29                     30
                      A                      A                      A
 Frequencies --   1262.1972              1295.5531              1311.8831
 Red. masses --      1.3267                 1.2600                 1.2200
 Frc consts  --      1.2453                 1.2461                 1.2370
 IR Inten    --      0.1100                 0.0859                 1.6896

                     31                     32                     33
                      A                      A                      A
 Frequencies --   1332.2382              1335.6864              1349.0461
 Red. masses --      1.0490                 1.1474                 1.2975
 Frc consts  --      1.0970                 1.2061                 1.3912
 IR Inten    --      0.2825                 0.9563                 0.1672

                     34                     35                     36
                      A                      A                      A
 Frequencies --   1380.2837              1396.8505              1410.4695
 Red. masses --      1.3956                 1.5209                 1.6043
 Frc consts  --      1.5666                 1.7484                 1.8805
 IR Inten    --      2.8234                 0.4365                 0.8032

                     37                     38                     39
                      A                      A                      A
 Frequencies --   1414.4460              1417.6851              1484.1985
 Red. masses --      1.3211                 1.3570                 1.0757
 Frc consts  --      1.5573                 1.6069                 1.3961
 IR Inten    --      1.3446                 8.5976                 0.9090

                     40                     41                     42
                      A                      A                      A
 Frequencies --   1487.1405              1493.6590              1495.1369
 Red. masses --      1.0747                 1.0614                 1.0671
 Frc consts  --      1.4004                 1.3952                 1.4054
 IR Inten    --      0.2015                 1.3922                 0.2114

                     43                     44                     45
                      A                      A                      A
 Frequencies --   1503.3008              1505.1153              1506.7933
 Red. masses --      1.0393                 1.0622                 1.0813
 Frc consts  --      1.3838                 1.4178                 1.4465
 IR Inten    --      7.0488                 4.4508                 2.0445

                     46                     47                     48
                      A                      A                      A
 Frequencies --   1513.9415              1514.7600              3029.9934
 Red. masses --      1.0637                 1.0879                 1.0604
 Frc consts  --      1.4364                 1.4707                 5.7360
 IR Inten    --      4.5648                11.8589                 1.1310

                     49                     50                     51
                      A                      A                      A
 Frequencies --   3033.3227              3042.4248              3049.5592
 Red. masses --      1.0609                 1.0624                 1.0645
 Frc consts  --      5.7512                 5.7939                 5.8326
 IR Inten    --      0.5330                31.4798                15.9280

                     52                     53                     54
                      A                      A                      A
 Frequencies --   3050.4770              3057.8358              3058.3670
 Red. masses --      1.0609                 1.0755                 1.0371
 Frc consts  --      5.8166                 5.9252                 5.7155
 IR Inten    --     53.0956                14.0708                38.2959

                     55                     56                     57
                      A                      A                      A
 Frequencies --   3059.6849              3070.1709              3083.1670
 Red. masses --      1.0563                 1.0971                 1.1014
 Frc consts  --      5.8264                 6.0931                 6.1688
 IR Inten    --     15.4101                 4.6887                 8.8457

                     58                     59                     60
                      A                      A                      A
 Frequencies --   3088.5470              3097.7124              3125.3375
 Red. masses --      1.1022                 1.1040                 1.1027
 Frc consts  --      6.1947                 6.2419                 6.3462
 IR Inten    --     15.0573                86.7159                48.1426

                     61                     62                     63
                      A                      A                      A
 Frequencies --   3126.7061              3133.3057              3136.5631
 Red. masses --      1.1007                 1.1016                 1.1018
 Frc consts  --      6.3400                 6.3721                 6.3864
 IR Inten    --     34.5706                31.2728                36.0493

 - Thermochemistry -
 -------------------
 Temperature   298.150 Kelvin.  Pressure   1.00000 Atm.
 Atom     1 has atomic number  6 and mass  12.00000

 Molecular mass:   100.12520 amu.
 Principal axes and moments of inertia in atomic units:
                           1         2         3
     Eigenvalues --   221.259832169.658922273.07034
           X            0.99999   0.00409   0.00012
           Y           -0.00409   0.99999   0.00294
           Z           -0.00011  -0.00294   1.00000
 This molecule is an asymmetric top.
 Rotational symmetry number  1.
 Rotational temperatures (Kelvin)      0.39146     0.03992     0.03810
 Rotational constants (GHZ):           8.15666     0.83181     0.79397
 Zero-point vibrational energy     574349.9 (Joules/Mol)
                                  137.27292 (Kcal/Mol)
 Warning -- explicit consideration of  11 degrees of freedom as
           vibrations may cause significant error
 Vibrational temperatures:     68.30   114.49   166.19   193.62   212.15
          (Kelvin)            352.25   354.55   415.43   515.02   571.09
                              714.44  1048.88  1075.06  1123.81  1214.75
                             1272.89  1323.87  1363.02  1417.58  1486.01
                             1514.58  1558.50  1578.95  1594.98  1673.45
                             1724.09  1782.75  1816.02  1864.01  1887.51
                             1916.79  1921.75  1940.98  1985.92  2009.76
                             2029.35  2035.07  2039.73  2135.43  2139.66
                             2149.04  2151.17  2162.91  2165.53  2167.94
                             2178.22  2179.40  4359.48  4364.27  4377.37
                             4387.64  4388.96  4399.54  4400.31  4402.20
                             4417.29  4435.99  4443.73  4456.92  4496.66
                             4498.63  4508.13  4512.81

 Zero-point correction=                           0.218758 (Hartree/Particle)
 Thermal correction to Energy=                    0.228413
 Thermal correction to Enthalpy=                  0.229357
 Thermal correction to Gibbs Free Energy=         0.183840
 Sum of electronic and zero-point Energies=           -276.121506
 Sum of electronic and thermal Energies=              -276.111852
 Sum of electronic and thermal Enthalpies=            -276.110908
 Sum of electronic and thermal Free Energies=         -276.156425

                     E (Thermal)             CV                S
                      KCal/Mol        Cal/Mol-Kelvin    Cal/Mol-Kelvin
 Total                  143.331             33.979             95.799
 Electronic               0.000              0.000              0.000
 Translational            0.889              2.981             39.722
 Rotational               0.889              2.981             28.480
 Vibrational            141.554             28.017             27.597
 Vibration     1          0.595              1.979              4.920
 Vibration     2          0.600              1.963              3.901
 Vibration     3          0.608              1.937              3.174
 Vibration     4          0.613              1.919              2.880
 Vibration     5          0.617              1.905              2.705
 Vibration     6          0.660              1.771              1.768
 Vibration     7          0.661              1.769              1.756
 Vibration     8          0.685              1.695              1.481
 Vibration     9          0.733              1.559              1.131
 Vibration    10          0.763              1.477              0.974
 Vibration    11          0.852              1.258              0.667

 Optimization completed.
    -- Stationary point found.
 Normal termination of Gaussian 16 at Sun Sep 29 22:58:38 2019.
