 Gaussian 16, Revision A.03,
 Gaussian 16:  EM64L-G16RevA.03 25-Dec-2016

 ----------------------------------------------------------------------
 #p m062x/cc-pVTZ opt=(calcfc,maxcycles=900,Tight) freq IOP(7/33=1,2/16
 =3) scf=(maxcycle=900)
 ----------------------------------------------------------------------

 ------------------------------
 Gaussian input prepared by ASE
 ------------------------------
 Symbolic Z-matrix:
 Charge =  0 Multiplicity = 1

 SCF Done:  E(RM062X) =  -276.306307471     A.U. after   11 cycles
 SCF Done:  E(RM062X) =  -276.321597533     A.U. after   12 cycles
 SCF Done:  E(RM062X) =  -276.326087282     A.U. after   11 cycles
 SCF Done:  E(RM062X) =  -276.328751360     A.U. after   10 cycles
 SCF Done:  E(RM062X) =  -276.332222431     A.U. after   11 cycles
 SCF Done:  E(RM062X) =  -276.333764873     A.U. after   10 cycles
 SCF Done:  E(RM062X) =  -276.332334773     A.U. after   10 cycles
 SCF Done:  E(RM062X) =  -276.335593114     A.U. after    9 cycles
 SCF Done:  E(RM062X) =  -276.336117704     A.U. after   10 cycles
 SCF Done:  E(RM062X) =  -276.337887348     A.U. after    9 cycles
 SCF Done:  E(RM062X) =  -276.339199587     A.U. after    6 cycles
 SCF Done:  E(RM062X) =  -276.339199737     A.U. after    6 cycles
 SCF Done:  E(RM062X) =  -276.339199760     A.U. after    5 cycles
 SCF Done:  E(RM062X) =  -276.339199765     A.U. after    4 cycles
 SCF Done:  E(RM062X) =  -276.339199766     A.U. after    4 cycles
 SCF Done:  E(RM062X) =  -276.339199766     A.U. after    3 cycles
 SCF Done:  E(RM062X) =  -276.339199766     A.U. after    3 cycles
 SCF Done:  E(RM062X) =  -276.339199766     A.U. after    3 cycles
 SCF Done:  E(RM062X) =  -276.339199766     A.U. after    3 cycles
 Optimization completed.
    -- Stationary point found.
 Normal termination of Gaussian 16 at Sat Sep 28 15:07:03 2019.

 ----------------------------------------------------------------------
 #P Geom=AllCheck Guess=TCheck SCRF=Check Test GenChk RM062X/CC-pVTZ Fr
 eq
 ----------------------------------------------------------------------

 Structure from the checkpoint file:  "/scratch/harms.n/gauss_scrdir/Gau-9459.chk"
 ------------------------------
 Gaussian input prepared by ASE
 ------------------------------
 Charge =  0 Multiplicity = 1

                         Standard orientation:
 ---------------------------------------------------------------------
 Center     Atomic      Atomic             Coordinates (Angstroms)
 Number     Number       Type             X           Y           Z
 ---------------------------------------------------------------------
      1          6           0        0.971053    0.571286    0.283474
      2          6           0        0.233177   -0.587240   -0.380723
      3          6           0       -1.205271   -0.762363    0.101556
      4          6           0        2.417645    0.729150   -0.182370
      5          6           0       -2.123148    0.415386   -0.210460
      6          6           0        3.311983   -0.452796    0.177038
      7          6           0       -3.571851    0.130702    0.165971
      8          1           0        2.832892    1.637217    0.259005
      9          1           0        2.429579    0.880761   -1.265195
     10          1           0        0.955264    0.429019    1.369557
     11          1           0        0.436995    1.502615    0.085827
     12          1           0        0.777079   -1.516005   -0.198321
     13          1           0        0.234867   -0.435753   -1.465478
     14          1           0       -1.205489   -0.938961    1.182090
     15          1           0       -1.627143   -1.662200   -0.354543
     16          1           0       -1.781030    1.305181    0.321020
     17          1           0       -2.056464    0.647796   -1.277232
     18          1           0        3.271075   -0.655100    1.249031
     19          1           0        3.010495   -1.360963   -0.343852
     20          1           0        4.350605   -0.254237   -0.085721
     21          1           0       -3.657276   -0.094264    1.230257
     22          1           0       -3.954003   -0.730333   -0.384306
     23          1           0       -4.218974    0.980470   -0.049049
 ---------------------------------------------------------------------

 SCF Done:  E(RM062X) =  -276.339199766     A.U. after    1 cycles

 The electronic state is 1-A.
 Alpha  occ. eigenvalues --  -10.52645 -10.52565 -10.52458 -10.52415 -10.52379
 Alpha  occ. eigenvalues --  -10.51931 -10.51893  -0.91220  -0.87713  -0.82388
 Alpha  occ. eigenvalues --   -0.76329  -0.70774  -0.66611  -0.63758  -0.53636
 Alpha  occ. eigenvalues --   -0.53088  -0.52123  -0.49071  -0.47621  -0.46759
 Alpha  occ. eigenvalues --   -0.44590  -0.43658  -0.40935  -0.40310  -0.39813
 Alpha  occ. eigenvalues --   -0.38474  -0.37565  -0.36646  -0.36048
 Alpha virt. eigenvalues --    0.07160   0.07892   0.09008   0.09254   0.10832
 Alpha virt. eigenvalues --    0.12319   0.13021   0.13766   0.14676   0.14931
 Alpha virt. eigenvalues --    0.15900   0.17026   0.17303   0.17735   0.19316

 Mulliken charges:
               1
     1  C   -0.275552
     2  C   -0.285181
     3  C   -0.259368
     4  C   -0.239984
     5  C   -0.240489
     6  C   -0.365329
     7  C   -0.353476
     8  H    0.126466
     9  H    0.124700
    10  H    0.137996
    11  H    0.144360
    12  H    0.145151
    13  H    0.137471
    14  H    0.133716
    15  H    0.131483
    16  H    0.129321
    17  H    0.126495
    18  H    0.114693
    19  H    0.117075
    20  H    0.117807
    21  H    0.109520
    22  H    0.109485
    23  H    0.113641
 Sum of Mulliken charges =   0.00000

 Dipole moment (field-independent basis, Debye):
    X=              0.0389    Y=              0.0789    Z=             -0.0335  Tot=              0.0941
 Quadrupole moment (field-independent basis, Debye-Ang):
   XX=            -49.7311   YY=            -48.8322   ZZ=            -48.3761
   XY=              0.1228   XZ=              0.2588   YZ=              0.1720

  Exact polarizability: 103.604  -0.383  78.303  -0.676  -0.464  75.010
 Approx polarizability:  98.494   0.139  96.353  -0.289  -0.274  97.159

                      1                      2                      3
                      A                      A                      A
 Frequencies --     31.5601                72.7946               103.9726
 Red. masses --      2.5241                 1.8125                 2.3623
 Frc consts  --      0.0015                 0.0057                 0.0150
 IR Inten    --      0.0059                 0.0148                 0.0354

                      4                      5                      6
                      A                      A                      A
 Frequencies --    125.8075               223.1233               240.0140
 Red. masses --      1.8764                 1.5583                 1.3174
 Frc consts  --      0.0175                 0.0457                 0.0447
 IR Inten    --      0.0068                 0.0399                 0.0071

                      7                      8                      9
                      A                      A                      A
 Frequencies --    263.8950               286.6347               299.4099
 Red. masses --      1.5122                 1.5615                 2.5721
 Frc consts  --      0.0620                 0.0756                 0.1359
 IR Inten    --      0.0096                 0.0822                 0.1561

                     10                     11                     12
                      A                      A                      A
 Frequencies --    414.8269               531.2208               728.9779
 Red. masses --      2.3591                 2.3596                 1.1642
 Frc consts  --      0.2392                 0.3923                 0.3645
 IR Inten    --      0.3034                 0.0288                 4.9013

                     13                     14                     15
                      A                      A                      A
 Frequencies --    746.3773               784.7595               851.2757
 Red. masses --      1.1900                 1.2383                 1.4405
 Frc consts  --      0.3906                 0.4493                 0.6150
 IR Inten    --      0.5108                 2.4490                 0.3451

                     16                     17                     18
                      A                      A                      A
 Frequencies --    868.4844               903.2857               951.2518
 Red. masses --      1.7804                 1.8878                 1.3417
 Frc consts  --      0.7912                 0.9075                 0.7153
 IR Inten    --      0.9836                 2.4228                 0.7010

                     19                     20                     21
                      A                      A                      A
 Frequencies --    967.4796              1042.8917              1046.1481
 Red. masses --      1.6555                 1.2227                 2.2426
 Frc consts  --      0.9130                 0.7835                 1.4461
 IR Inten    --      1.1012                 0.8361                 0.7336

                     22                     23                     24
                      A                      A                      A
 Frequencies --   1073.4641              1088.7342              1117.8127
 Red. masses --      1.5573                 2.4500                 2.0040
 Frc consts  --      1.0573                 1.7110                 1.4753
 IR Inten    --      0.5989                 0.1485                 0.1559

                     25                     26                     27
                      A                      A                      A
 Frequencies --   1155.9874              1193.9943              1235.5194
 Red. masses --      2.1572                 2.0307                 1.4441
 Frc consts  --      1.6985                 1.7057                 1.2988
 IR Inten    --      0.3019                 0.1271                 2.8130

                     28                     29                     30
                      A                      A                      A
 Frequencies --   1272.3756              1293.3114              1315.4519
 Red. masses --      1.3559                 1.2623                 1.2997
 Frc consts  --      1.2933                 1.2440                 1.3251
 IR Inten    --      1.8471                 0.2247                 0.2677

                     31                     32                     33
                      A                      A                      A
 Frequencies --   1328.8407              1340.7286              1352.2958
 Red. masses --      1.1452                 1.1629                 1.1745
 Frc consts  --      1.1915                 1.2316                 1.2655
 IR Inten    --      0.0760                 1.2820                 0.2708

                     34                     35                     36
                      A                      A                      A
 Frequencies --   1380.5684              1402.2788              1408.9531
 Red. masses --      1.4316                 1.6230                 1.5174
 Frc consts  --      1.6076                 1.8803                 1.7748
 IR Inten    --      2.0277                 0.2824                 0.7275

                     37                     38                     39
                      A                      A                      A
 Frequencies --   1414.7938              1417.5690              1483.1138
 Red. masses --      1.2541                 1.3431                 1.0779
 Frc consts  --      1.4790                 1.5902                 1.3970
 IR Inten    --      2.8741                 5.5512                 0.6392

                     40                     41                     42
                      A                      A                      A
 Frequencies --   1487.6304              1492.9709              1497.9650
 Red. masses --      1.0756                 1.0644                 1.0603
 Frc consts  --      1.4024                 1.3978                 1.4018
 IR Inten    --      1.8725                 1.0173                 1.8666

                     43                     44                     45
                      A                      A                      A
 Frequencies --   1501.1549              1504.1990              1505.6730
 Red. masses --      1.0893                 1.0396                 1.0655
 Frc consts  --      1.4463                 1.3859                 1.4232
 IR Inten    --      1.7393                 8.2395                 5.9529

                     46                     47                     48
                      A                      A                      A
 Frequencies --   1512.7153              1513.1094              3030.5176
 Red. masses --      1.0597                 1.0854                 1.0675
 Frc consts  --      1.4288                 1.4642                 5.7762
 IR Inten    --      7.8741                 6.3678                 0.2035

                     49                     50                     51
                      A                      A                      A
 Frequencies --   3034.0768              3041.6195              3050.7148
 Red. masses --      1.0620                 1.0657                 1.0613
 Frc consts  --      5.7599                 5.8089                 5.8195
 IR Inten    --     10.6619                30.1463                48.7048

                     52                     53                     54
                      A                      A                      A
 Frequencies --   3051.4330              3057.5826              3059.6993
 Red. masses --      1.0624                 1.0370                 1.0380
 Frc consts  --      5.8285                 5.7119                 5.7254
 IR Inten    --      9.8250                39.4794                21.8133

                     55                     56                     57
                      A                      A                      A
 Frequencies --   3069.4927              3080.7946              3088.0267
 Red. masses --      1.0979                 1.0937                 1.0987
 Frc consts  --      6.0944                 6.1159                 6.1727
 IR Inten    --     11.3895                 7.0125                11.5149

                     58                     59                     60
                      A                      A                      A
 Frequencies --   3096.0471              3103.6409              3125.9614
 Red. masses --      1.1018                 1.0985                 1.1028
 Frc consts  --      6.2224                 6.2343                 6.3489
 IR Inten    --     40.5574                55.3021                43.1876

                     61                     62                     63
                      A                      A                      A
 Frequencies --   3127.2267              3132.4208              3137.1889
 Red. masses --      1.1006                 1.1016                 1.1015
 Frc consts  --      6.3415                 6.3685                 6.3876
 IR Inten    --     37.5101                31.4136                36.3532

 - Thermochemistry -
 -------------------
 Temperature   298.150 Kelvin.  Pressure   1.00000 Atm.
 Atom     1 has atomic number  6 and mass  12.00000

 Molecular mass:   100.12520 amu.
 Principal axes and moments of inertia in atomic units:
                           1         2         3
     Eigenvalues --   218.509782031.379292129.16025
           X            1.00000  -0.00295  -0.00069
           Y            0.00294   0.99998  -0.00634
           Z            0.00071   0.00634   0.99998
 This molecule is an asymmetric top.
 Rotational symmetry number  1.
 Rotational temperatures (Kelvin)      0.39638     0.04264     0.04068
 Rotational constants (GHZ):           8.25932     0.88843     0.84763
 Zero-point vibrational energy     574577.4 (Joules/Mol)
                                  137.32730 (Kcal/Mol)
 Warning -- explicit consideration of  11 degrees of freedom as
           vibrations may cause significant error
 Vibrational temperatures:     45.41   104.74   149.59   181.01   321.02
          (Kelvin)            345.33   379.69   412.40   430.78   596.84
                              764.31  1048.84  1073.87  1129.09  1224.80
                             1249.56  1299.63  1368.64  1391.99  1500.49
                             1505.17  1544.48  1566.45  1608.28  1663.21
                             1717.89  1777.64  1830.66  1860.79  1892.64
                             1911.91  1929.01  1945.65  1986.33  2017.57
                             2027.17  2035.57  2039.57  2133.87  2140.37
                             2148.05  2155.24  2159.83  2164.21  2166.33
                             2176.46  2177.03  4360.24  4365.36  4376.21
                             4389.30  4390.33  4399.18  4402.22  4416.32
                             4432.58  4442.98  4454.52  4465.45  4497.56
                             4499.38  4506.85  4513.72

 Zero-point correction=                           0.218845 (Hartree/Particle)
 Thermal correction to Energy=                    0.228481
 Thermal correction to Enthalpy=                  0.229425
 Thermal correction to Gibbs Free Energy=         0.183674
 Sum of electronic and zero-point Energies=           -276.120355
 Sum of electronic and thermal Energies=              -276.110719
 Sum of electronic and thermal Enthalpies=            -276.109774
 Sum of electronic and thermal Free Energies=         -276.155526

                     E (Thermal)             CV                S
                      KCal/Mol        Cal/Mol-Kelvin    Cal/Mol-Kelvin
 Total                  143.374             33.941             96.292
 Electronic               0.000              0.000              0.000
 Translational            0.889              2.981             39.722
 Rotational               0.889              2.981             28.337
 Vibrational            141.597             27.980             28.233
 Vibration     1          0.594              1.983              5.729
 Vibration     2          0.599              1.967              4.076
 Vibration     3          0.605              1.946              3.378
 Vibration     4          0.611              1.927              3.009
 Vibration     5          0.649              1.806              1.934
 Vibration     6          0.657              1.779              1.803
 Vibration     7          0.670              1.739              1.636
 Vibration     8          0.684              1.699              1.494
 Vibration     9          0.692              1.675              1.420
 Vibration    10          0.778              1.438              0.910
 Vibration    11          0.886              1.181              0.584

 Optimization completed.
    -- Stationary point found.
 Normal termination of Gaussian 16 at Sat Sep 28 18:32:44 2019.
