 Gaussian 16, Revision A.03,
 Gaussian 16:  EM64L-G16RevA.03 25-Dec-2016

 ----------------------------------------------------------------------
 #p m062x/cc-pVTZ opt=(calcfc,maxcycles=900,Tight) freq IOP(7/33=1,2/16
 =3) scf=(maxcycle=900)
 ----------------------------------------------------------------------

 ------------------------------
 Gaussian input prepared by ASE
 ------------------------------
 Symbolic Z-matrix:
 Charge =  0 Multiplicity = 1

 SCF Done:  E(RM062X) =  -276.306957099     A.U. after   11 cycles
 SCF Done:  E(RM062X) =  -276.324097247     A.U. after   12 cycles
 SCF Done:  E(RM062X) =  -276.325191127     A.U. after   10 cycles
 SCF Done:  E(RM062X) =  -276.326265099     A.U. after   10 cycles
 SCF Done:  E(RM062X) =  -276.329295473     A.U. after   10 cycles
 SCF Done:  E(RM062X) =  -276.318865891     A.U. after   10 cycles
 SCF Done:  E(RM062X) =  -276.331239740     A.U. after    9 cycles
 SCF Done:  E(RM062X) =  -276.333149682     A.U. after   10 cycles
 SCF Done:  E(RM062X) =  -276.335325042     A.U. after    9 cycles
 SCF Done:  E(RM062X) =  -276.311497724     A.U. after   12 cycles
 SCF Done:  E(RM062X) =  -276.339502019     A.U. after    5 cycles
 SCF Done:  E(RM062X) =  -276.339502056     A.U. after    5 cycles
 SCF Done:  E(RM062X) =  -276.339502078     A.U. after    5 cycles
 SCF Done:  E(RM062X) =  -276.339502088     A.U. after    5 cycles
 SCF Done:  E(RM062X) =  -276.339502090     A.U. after    4 cycles
 SCF Done:  E(RM062X) =  -276.339502090     A.U. after    3 cycles
 SCF Done:  E(RM062X) =  -276.339502091     A.U. after    4 cycles
 SCF Done:  E(RM062X) =  -276.339502090     A.U. after    4 cycles
 SCF Done:  E(RM062X) =  -276.339502090     A.U. after    3 cycles
 Optimization completed.
    -- Stationary point found.
 Normal termination of Gaussian 16 at Sat Sep 28 04:59:07 2019.

 ----------------------------------------------------------------------
 #P Geom=AllCheck Guess=TCheck SCRF=Check Test GenChk RM062X/CC-pVTZ Fr
 eq
 ----------------------------------------------------------------------

 Structure from the checkpoint file:  "/scratch/harms.n/gauss_scrdir/Gau-10576.chk"
 ------------------------------
 Gaussian input prepared by ASE
 ------------------------------
 Charge =  0 Multiplicity = 1

                         Standard orientation:
 ---------------------------------------------------------------------
 Center     Atomic      Atomic             Coordinates (Angstroms)
 Number     Number       Type             X           Y           Z
 ---------------------------------------------------------------------
      1          6           0        1.249923   -0.894690    0.210813
      2          6           0        0.000003   -0.046537   -0.000020
      3          6           0       -1.249925   -0.894688   -0.210808
      4          6           0        2.496736   -0.088282    0.566577
      5          6           0       -2.496742   -0.088286   -0.566569
      6          6           0        2.910789    0.899363   -0.519033
      7          6           0       -2.910785    0.899368    0.519036
      8          1           0        3.321531   -0.776936    0.759825
      9          1           0        2.319765    0.450412    1.501410
     10          1           0        1.443684   -1.477826   -0.695184
     11          1           0        1.052374   -1.619118    1.005681
     12          1           0        0.133358    0.608325   -0.866011
     13          1           0       -0.133345    0.608371    0.865939
     14          1           0       -1.443674   -1.477792    0.695213
     15          1           0       -1.052392   -1.619145   -1.005653
     16          1           0       -2.319779    0.450399   -1.501410
     17          1           0       -3.321540   -0.776939   -0.759801
     18          1           0        2.163497    1.680699   -0.655465
     19          1           0        3.853842    1.385773   -0.271778
     20          1           0        3.037379    0.389901   -1.476306
     21          1           0       -2.163495    1.680708    0.655458
     22          1           0       -3.037362    0.389911    1.476313
     23          1           0       -3.853843    1.385772    0.271789
 ---------------------------------------------------------------------

 SCF Done:  E(RM062X) =  -276.339502090     A.U. after    1 cycles

 The electronic state is 1-A.
 Alpha  occ. eigenvalues --  -10.52627 -10.52627 -10.52450 -10.52442 -10.52354
 Alpha  occ. eigenvalues --  -10.51898 -10.51898  -0.91230  -0.87805  -0.82206
 Alpha  occ. eigenvalues --   -0.76323  -0.71398  -0.65408  -0.64275  -0.54537
 Alpha  occ. eigenvalues --   -0.52333  -0.51608  -0.50279  -0.47623  -0.46231
 Alpha  occ. eigenvalues --   -0.44385  -0.43116  -0.41547  -0.40874  -0.38871
 Alpha  occ. eigenvalues --   -0.38568  -0.37505  -0.37150  -0.35893
 Alpha virt. eigenvalues --    0.06853   0.08050   0.08968   0.09150   0.11375
 Alpha virt. eigenvalues --    0.12271   0.12314   0.14396   0.14477   0.15035
 Alpha virt. eigenvalues --    0.15468   0.16762   0.17678   0.17779   0.19295

 Mulliken charges:
               1
     1  C   -0.264532
     2  C   -0.280420
     3  C   -0.264533
     4  C   -0.240348
     5  C   -0.240346
     6  C   -0.368109
     7  C   -0.368109
     8  H    0.125751
     9  H    0.124788
    10  H    0.136295
    11  H    0.131721
    12  H    0.141411
    13  H    0.141412
    14  H    0.136293
    15  H    0.131722
    16  H    0.124787
    17  H    0.125751
    18  H    0.118903
    19  H    0.118356
    20  H    0.115975
    21  H    0.118903
    22  H    0.115975
    23  H    0.118356
 Sum of Mulliken charges =  -0.00000

 Dipole moment (field-independent basis, Debye):
    X=             -0.0000    Y=             -0.0574    Z=             -0.0000  Tot=              0.0574
 Quadrupole moment (field-independent basis, Debye-Ang):
   XX=            -48.8464   YY=            -49.1553   ZZ=            -48.6517
   XY=             -0.0000   XZ=              0.1715   YZ=              0.0000

  Exact polarizability:  98.691   0.000  80.307   0.213  -0.000  76.944
 Approx polarizability:  97.861  -0.000  97.098  -0.030  -0.000  96.956

                      1                      2                      3
                      A                      A                      A
 Frequencies --     48.4816                91.7038               117.5513
 Red. masses --      2.3049                 2.0839                 2.7258
 Frc consts  --      0.0032                 0.0103                 0.0222
 IR Inten    --      0.0022                 0.0250                 0.0310

                      4                      5                      6
                      A                      A                      A
 Frequencies --    127.9594               168.8317               253.7371
 Red. masses --      1.6838                 1.3635                 1.1880
 Frc consts  --      0.0162                 0.0229                 0.0451
 IR Inten    --      0.0136                 0.0023                 0.0202

                      7                      8                      9
                      A                      A                      A
 Frequencies --    288.9404               306.9872               320.3843
 Red. masses --      1.3759                 2.6266                 2.0782
 Frc consts  --      0.0677                 0.1458                 0.1257
 IR Inten    --      0.0090                 0.0181                 0.0245

                     10                     11                     12
                      A                      A                      A
 Frequencies --    460.3647               470.5609               735.3737
 Red. masses --      2.3250                 2.1636                 1.1231
 Frc consts  --      0.2903                 0.2823                 0.3578
 IR Inten    --      0.0008                 0.6678                 4.3270

                     13                     14                     15
                      A                      A                      A
 Frequencies --    751.5419               790.0998               843.7309
 Red. masses --      1.2056                 1.1626                 1.2865
 Frc consts  --      0.4012                 0.4276                 0.5396
 IR Inten    --      0.5478                 4.0909                 1.5778

                     16                     17                     18
                      A                      A                      A
 Frequencies --    877.8990               907.8602               954.8522
 Red. masses --      2.6195                 2.0750                 1.2795
 Frc consts  --      1.1895                 1.0076                 0.6873
 IR Inten    --      1.6858                 0.2001                 1.1321

                     19                     20                     21
                      A                      A                      A
 Frequencies --    971.3113              1020.4063              1037.5149
 Red. masses --      1.7256                 1.7804                 1.2665
 Frc consts  --      0.9592                 1.0922                 0.8032
 IR Inten    --      0.0451                 0.6253                 0.0206

                     22                     23                     24
                      A                      A                      A
 Frequencies --   1083.3005              1102.8884              1110.9455
 Red. masses --      1.8001                 2.1750                 1.9260
 Frc consts  --      1.2447                 1.5587                 1.4006
 IR Inten    --      0.0595                 0.9526                 0.1427

                     25                     26                     27
                      A                      A                      A
 Frequencies --   1159.6620              1188.6404              1233.0044
 Red. masses --      2.1885                 2.0024                 1.4969
 Frc consts  --      1.7340                 1.6668                 1.3408
 IR Inten    --      0.7876                 1.4790                 0.0487

                     28                     29                     30
                      A                      A                      A
 Frequencies --   1265.7852              1302.3406              1306.8183
 Red. masses --      1.3454                 1.2669                 1.2086
 Frc consts  --      1.2700                 1.2660                 1.2161
 IR Inten    --      0.5513                 1.9647                 0.5387

                     31                     32                     33
                      A                      A                      A
 Frequencies --   1330.5402              1334.4261              1379.0444
 Red. masses --      1.1583                 1.0780                 1.3543
 Frc consts  --      1.2082                 1.1309                 1.5175
 IR Inten    --      2.2513                 0.5391                 0.4331

                     34                     35                     36
                      A                      A                      A
 Frequencies --   1379.4603              1382.7505              1408.5262
 Red. masses --      1.3878                 1.5248                 1.5703
 Frc consts  --      1.5559                 1.7177                 1.8356
 IR Inten    --      3.3205                 0.0009                 1.6449

                     37                     38                     39
                      A                      A                      A
 Frequencies --   1417.2385              1417.5546              1482.8256
 Red. masses --      1.3641                 1.2915                 1.0727
 Frc consts  --      1.6143                 1.5290                 1.3897
 IR Inten    --     10.0150                 4.3794                 0.0164

                     40                     41                     42
                      A                      A                      A
 Frequencies --   1486.8375              1494.2982              1494.6723
 Red. masses --      1.0830                 1.0606                 1.0648
 Frc consts  --      1.4106                 1.3954                 1.4016
 IR Inten    --      2.1241                 0.2114                 2.7600

                     43                     44                     45
                      A                      A                      A
 Frequencies --   1504.7973              1505.6667              1508.2897
 Red. masses --      1.0569                 1.0570                 1.0983
 Frc consts  --      1.4100                 1.4119                 1.4721
 IR Inten    --      4.9649                 2.2156                 7.5563

                     46                     47                     48
                      A                      A                      A
 Frequencies --   1513.7257              1513.7345              3033.9935
 Red. masses --      1.0618                 1.0614                 1.0593
 Frc consts  --      1.4335                 1.4329                 5.7453
 IR Inten    --      6.9863                 7.5309                 6.5620

                     49                     50                     51
                      A                      A                      A
 Frequencies --   3035.2475              3045.2978              3048.6881
 Red. masses --      1.0618                 1.0637                 1.0652
 Frc consts  --      5.7637                 5.8118                 5.8330
 IR Inten    --      0.5738                39.4546                29.1882

                     52                     53                     54
                      A                      A                      A
 Frequencies --   3050.0699              3058.7347              3059.2120
 Red. masses --      1.0623                 1.0407                 1.0379
 Frc consts  --      5.8225                 5.7366                 5.7229
 IR Inten    --     16.1234                39.8006                13.5681

                     55                     56                     57
                      A                      A                      A
 Frequencies --   3064.5395              3076.2357              3086.1302
 Red. masses --      1.0929                 1.0974                 1.0997
 Frc consts  --      6.0473                 6.1186                 6.1709
 IR Inten    --      4.4989                13.1947                21.8507

                     58                     59                     60
                      A                      A                      A
 Frequencies --   3089.0181              3097.5027              3126.5328
 Red. masses --      1.1013                 1.1045                 1.1007
 Frc consts  --      6.1916                 6.2437                 6.3391
 IR Inten    --     14.5547                96.5495                21.4825

                     61                     62                     63
                      A                      A                      A
 Frequencies --   3126.5863              3136.6289              3136.6495
 Red. masses --      1.1006                 1.1018                 1.1019
 Frc consts  --      6.3388                 6.3867                 6.3872
 IR Inten    --     46.1640                 4.6347                68.1089

 - Thermochemistry -
 -------------------
 Temperature   298.150 Kelvin.  Pressure   1.00000 Atm.
 Atom     1 has atomic number  6 and mass  12.00000

 Molecular mass:   100.12520 amu.
 Principal axes and moments of inertia in atomic units:
                           1         2         3
     Eigenvalues --   327.169151852.831251959.54270
           X            0.99999   0.00000  -0.00436
           Y           -0.00000   1.00000  -0.00000
           Z            0.00436   0.00000   0.99999
 This molecule is an asymmetric top.
 Rotational symmetry number  1.
 Rotational temperatures (Kelvin)      0.26474     0.04675     0.04420
 Rotational constants (GHZ):           5.51623     0.97405     0.92100
 Zero-point vibrational energy     574954.8 (Joules/Mol)
                                  137.41749 (Kcal/Mol)
 Warning -- explicit consideration of  11 degrees of freedom as
           vibrations may cause significant error
 Vibrational temperatures:     69.75   131.94   169.13   184.11   242.91
          (Kelvin)            365.07   415.72   441.69   460.96   662.36
                              677.03  1058.04  1081.30  1136.78  1213.94
                             1263.10  1306.21  1373.82  1397.50  1468.14
                             1492.75  1558.63  1586.81  1598.40  1668.49
                             1710.19  1774.02  1821.18  1873.78  1880.22
                             1914.35  1919.94  1984.14  1984.74  1989.47
                             2026.55  2039.09  2039.54  2133.46  2139.23
                             2149.96  2150.50  2165.07  2166.32  2170.09
                             2177.91  2177.93  4365.24  4367.04  4381.50
                             4386.38  4388.37  4400.84  4401.52  4409.19
                             4426.02  4440.25  4444.41  4456.62  4498.38
                             4498.46  4512.91  4512.94

 Zero-point correction=                           0.218989 (Hartree/Particle)
 Thermal correction to Energy=                    0.228503
 Thermal correction to Enthalpy=                  0.229447
 Thermal correction to Gibbs Free Energy=         0.184325
 Sum of electronic and zero-point Energies=           -276.120513
 Sum of electronic and thermal Energies=              -276.110999
 Sum of electronic and thermal Enthalpies=            -276.110055
 Sum of electronic and thermal Free Energies=         -276.155178

                     E (Thermal)             CV                S
                      KCal/Mol        Cal/Mol-Kelvin    Cal/Mol-Kelvin
 Total                  143.388             33.846             94.969
 Electronic               0.000              0.000              0.000
 Translational            0.889              2.981             39.722
 Rotational               0.889              2.981             28.565
 Vibrational            141.610             27.884             26.682
 Vibration     1          0.595              1.978              4.878
 Vibration     2          0.602              1.955              3.623
 Vibration     3          0.608              1.935              3.140
 Vibration     4          0.611              1.925              2.976
 Vibration     5          0.625              1.881              2.448
 Vibration     6          0.665              1.756              1.704
 Vibration     7          0.686              1.694              1.480
 Vibration     8          0.697              1.660              1.379
 Vibration     9          0.706              1.635              1.308
 Vibration    10          0.818              1.338              0.765
 Vibration    11          0.828              1.315              0.736

 Optimization completed.
    -- Stationary point found.
 Normal termination of Gaussian 16 at Sat Sep 28 08:12:33 2019.
