 Gaussian 16, Revision A.03,
 Gaussian 16:  EM64L-G16RevA.03 25-Dec-2016

 ----------------------------------------------------------------------
 #p m062x/cc-pVTZ opt=(calcfc,maxcycles=900,Tight) freq IOP(7/33=1,2/16
 =3) scf=(maxcycle=900)
 ----------------------------------------------------------------------

 ------------------------------
 Gaussian input prepared by ASE
 ------------------------------
 Symbolic Z-matrix:
 Charge =  0 Multiplicity = 1

 SCF Done:  E(RM062X) =  -276.303842120     A.U. after   11 cycles
 SCF Done:  E(RM062X) =  -276.319125375     A.U. after   10 cycles
 SCF Done:  E(RM062X) =  -276.324434444     A.U. after   10 cycles
 SCF Done:  E(RM062X) =  -276.328805353     A.U. after   10 cycles
 SCF Done:  E(RM062X) =  -276.332263064     A.U. after   11 cycles
 SCF Done:  E(RM062X) =  -276.332981589     A.U. after    9 cycles
 SCF Done:  E(RM062X) =  -276.334882271     A.U. after   10 cycles
 SCF Done:  E(RM062X) =  -276.336957301     A.U. after   10 cycles
 SCF Done:  E(RM062X) =  -276.336250965     A.U. after   10 cycles
 SCF Done:  E(RM062X) =  -276.337791361     A.U. after   10 cycles
 SCF Done:  E(RM062X) =  -276.339123099     A.U. after    7 cycles
 SCF Done:  E(RM062X) =  -276.339123847     A.U. after    6 cycles
 SCF Done:  E(RM062X) =  -276.339123954     A.U. after    5 cycles
 SCF Done:  E(RM062X) =  -276.339123967     A.U. after    4 cycles
 SCF Done:  E(RM062X) =  -276.339123971     A.U. after    4 cycles
 SCF Done:  E(RM062X) =  -276.339123971     A.U. after    3 cycles
 SCF Done:  E(RM062X) =  -276.339123971     A.U. after    2 cycles
 SCF Done:  E(RM062X) =  -276.339123970     A.U. after    3 cycles
 SCF Done:  E(RM062X) =  -276.339123970     A.U. after    2 cycles
 Optimization completed.
    -- Stationary point found.
 Normal termination of Gaussian 16 at Sun Sep 29 15:58:28 2019.

 ----------------------------------------------------------------------
 #P Geom=AllCheck Guess=TCheck SCRF=Check Test GenChk RM062X/CC-pVTZ Fr
 eq
 ----------------------------------------------------------------------

 Structure from the checkpoint file:  "/scratch/harms.n/gauss_scrdir/Gau-35888.chk"
 ------------------------------
 Gaussian input prepared by ASE
 ------------------------------
 Charge =  0 Multiplicity = 1

                         Standard orientation:
 ---------------------------------------------------------------------
 Center     Atomic      Atomic             Coordinates (Angstroms)
 Number     Number       Type             X           Y           Z
 ---------------------------------------------------------------------
      1          6           0       -1.273870   -1.159022    0.003814
      2          6           0        0.050212   -0.562287   -0.474465
      3          6           0        0.781571    0.242337    0.594893
      4          6           0       -2.285203   -0.140579    0.531392
      5          6           0        2.117538    0.817983    0.128045
      6          6           0       -2.609755    0.960525   -0.471671
      7          6           0        3.153868   -0.243190   -0.226429
      8          1           0       -1.915058    0.305535    1.456891
      9          1           0       -3.202366   -0.669183    0.797921
     10          1           0       -1.068150   -1.893441    0.787151
     11          1           0       -1.730059   -1.709011   -0.823781
     12          1           0       -0.121959    0.076338   -1.346115
     13          1           0        0.687875   -1.378536   -0.818782
     14          1           0        0.947407   -0.393140    1.471721
     15          1           0        0.144357    1.064893    0.927980
     16          1           0        1.944602    1.463609   -0.737490
     17          1           0        2.519041    1.460150    0.914337
     18          1           0       -1.741716    1.591241   -0.667477
     19          1           0       -2.929593    0.534777   -1.424782
     20          1           0       -3.409110    1.604729   -0.107065
     21          1           0        2.850460   -0.830308   -1.092571
     22          1           0        3.300979   -0.932110    0.607553
     23          1           0        4.117128    0.209852   -0.458962
 ---------------------------------------------------------------------

 SCF Done:  E(RM062X) =  -276.339123971     A.U. after    1 cycles

 The electronic state is 1-A.
 Alpha  occ. eigenvalues --  -10.52665 -10.52559 -10.52458 -10.52435 -10.52323
 Alpha  occ. eigenvalues --  -10.51951 -10.51899  -0.91310  -0.87600  -0.81997
 Alpha  occ. eigenvalues --   -0.76594  -0.71640  -0.66347  -0.62758  -0.54646
 Alpha  occ. eigenvalues --   -0.52953  -0.51678  -0.49442  -0.47872  -0.46215
 Alpha  occ. eigenvalues --   -0.44290  -0.43689  -0.42003  -0.39839  -0.39505
 Alpha  occ. eigenvalues --   -0.38762  -0.37294  -0.36629  -0.35962
 Alpha virt. eigenvalues --    0.06561   0.08308   0.08708   0.08974   0.11664
 Alpha virt. eigenvalues --    0.12348   0.12888   0.13849   0.14439   0.14948
 Alpha virt. eigenvalues --    0.15680   0.17215   0.17762   0.18086   0.18857

 Mulliken charges:
               1
     1  C   -0.285835
     2  C   -0.306512
     3  C   -0.287632
     4  C   -0.257125
     5  C   -0.239430
     6  C   -0.372696
     7  C   -0.364963
     8  H    0.137178
     9  H    0.134012
    10  H    0.138603
    11  H    0.141418
    12  H    0.151068
    13  H    0.157181
    14  H    0.145221
    15  H    0.147897
    16  H    0.125428
    17  H    0.126478
    18  H    0.118930
    19  H    0.121241
    20  H    0.119952
    21  H    0.116951
    22  H    0.114667
    23  H    0.117968
 Sum of Mulliken charges =  -0.00000

 Dipole moment (field-independent basis, Debye):
    X=             -0.0253    Y=              0.0058    Z=              0.0552  Tot=              0.0610
 Quadrupole moment (field-independent basis, Debye-Ang):
   XX=            -48.9361   YY=            -48.9116   ZZ=            -48.7408
   XY=              0.3317   XZ=              0.1767   YZ=              0.1015

  Exact polarizability:  97.990  -0.463  80.069  -0.593  -0.293  76.193
 Approx polarizability:  98.186   0.018  96.835  -0.029  -0.385  97.046

                      1                      2                      3
                      A                      A                      A
 Frequencies --     40.5905                77.7595               124.8372
 Red. masses --      2.5975                 2.4733                 1.8385
 Frc consts  --      0.0025                 0.0088                 0.0169
 IR Inten    --      0.0082                 0.0174                 0.0379

                      4                      5                      6
                      A                      A                      A
 Frequencies --    173.3382               223.3929               250.9037
 Red. masses --      1.4670                 1.6102                 1.7449
 Frc consts  --      0.0260                 0.0473                 0.0647
 IR Inten    --      0.0398                 0.0928                 0.0048

                      7                      8                      9
                      A                      A                      A
 Frequencies --    292.4373               296.4239               357.9596
 Red. masses --      1.3205                 1.6714                 2.0738
 Frc consts  --      0.0665                 0.0865                 0.1566
 IR Inten    --      0.0373                 0.0105                 0.2857

                     10                     11                     12
                      A                      A                      A
 Frequencies --    436.8694               517.3242               722.9106
 Red. masses --      2.1325                 2.2524                 1.1483
 Frc consts  --      0.2398                 0.3552                 0.3536
 IR Inten    --      0.2296                 0.1760                 7.1541

                     13                     14                     15
                      A                      A                      A
 Frequencies --    751.5065               799.5585               848.6675
 Red. masses --      1.2565                 1.2520                 2.3209
 Frc consts  --      0.4181                 0.4716                 0.9849
 IR Inten    --      0.5409                 3.5339                 0.4740

                     16                     17                     18
                      A                      A                      A
 Frequencies --    858.3340               905.7733               956.9699
 Red. masses --      1.4037                 1.8958                 1.6494
 Frc consts  --      0.6093                 0.9164                 0.8899
 IR Inten    --      1.1592                 1.0019                 1.1362

                     19                     20                     21
                      A                      A                      A
 Frequencies --    961.6953              1013.2744              1045.0719
 Red. masses --      1.4625                 1.7061                 1.4161
 Frc consts  --      0.7969                 1.0320                 0.9112
 IR Inten    --      0.3376                 1.3020                 0.1191

                     22                     23                     24
                      A                      A                      A
 Frequencies --   1072.0152              1095.9975              1121.8249
 Red. masses --      1.3103                 2.2188                 2.0270
 Frc consts  --      0.8872                 1.5703                 1.5030
 IR Inten    --      0.2717                 0.3383                 0.0761

                     25                     26                     27
                      A                      A                      A
 Frequencies --   1154.7532              1178.2206              1229.7966
 Red. masses --      1.9629                 2.0883                 1.4460
 Frc consts  --      1.5421                 1.7080                 1.2885
 IR Inten    --      0.6479                 0.5069                 1.6232

                     28                     29                     30
                      A                      A                      A
 Frequencies --   1262.8443              1297.7429              1307.8022
 Red. masses --      1.3599                 1.2540                 1.2194
 Frc consts  --      1.2778                 1.2443                 1.2288
 IR Inten    --      1.2088                 0.3887                 2.2326

                     31                     32                     33
                      A                      A                      A
 Frequencies --   1334.5327              1342.1626              1378.6755
 Red. masses --      1.0920                 1.2445                 1.3605
 Frc consts  --      1.1459                 1.3209                 1.5236
 IR Inten    --      0.3106                 1.5295                 1.9872

                     34                     35                     36
                      A                      A                      A
 Frequencies --   1380.9347              1390.7411              1410.3751
 Red. masses --      1.4120                 1.5260                 1.4719
 Frc consts  --      1.5865                 1.7390                 1.7251
 IR Inten    --      1.2623                 0.4884                 0.7950

                     37                     38                     39
                      A                      A                      A
 Frequencies --   1416.2511              1417.8964              1481.1097
 Red. masses --      1.2983                 1.3614                 1.0709
 Frc consts  --      1.5343                 1.6125                 1.3841
 IR Inten    --      7.2725                 6.3466                 0.2352

                     40                     41                     42
                      A                      A                      A
 Frequencies --   1490.8484              1494.1117              1497.8133
 Red. masses --      1.0762                 1.0705                 1.0605
 Frc consts  --      1.4093                 1.4080                 1.4018
 IR Inten    --      2.7728                 0.7810                 2.3325

                     43                     44                     45
                      A                      A                      A
 Frequencies --   1501.7873              1504.9530              1508.7831
 Red. masses --      1.0702                 1.0628                 1.0593
 Frc consts  --      1.4221                 1.4182                 1.4208
 IR Inten    --      7.9194                 5.6715                 7.3789

                     46                     47                     48
                      A                      A                      A
 Frequencies --   1513.2396              1518.8610              3032.1411
 Red. masses --      1.0623                 1.0774                 1.0656
 Frc consts  --      1.4332                 1.4644                 5.7721
 IR Inten    --      9.7113                 1.6868                 7.4898

                     49                     50                     51
                      A                      A                      A
 Frequencies --   3043.6864              3047.7231              3050.7137
 Red. masses --      1.0611                 1.0637                 1.0614
 Frc consts  --      5.7915                 5.8211                 5.8200
 IR Inten    --     28.9292                10.9155                23.9888

                     52                     53                     54
                      A                      A                      A
 Frequencies --   3056.9342              3060.0551              3061.8207
 Red. masses --      1.0422                 1.0384                 1.0633
 Frc consts  --      5.7380                 5.7287                 5.8730
 IR Inten    --     23.9105                20.3208                20.6151

                     55                     56                     57
                      A                      A                      A
 Frequencies --   3077.9534              3080.4793              3087.2512
 Red. masses --      1.0932                 1.0966                 1.0990
 Frc consts  --      6.1020                 6.1308                 6.1715
 IR Inten    --      6.1423                30.6322                16.3687

                     58                     59                     60
                      A                      A                      A
 Frequencies --   3095.8432              3101.0390              3124.1720
 Red. masses --      1.1014                 1.1010                 1.1019
 Frc consts  --      6.2194                 6.2381                 6.3367
 IR Inten    --     30.1019                73.6128                43.5089

                     61                     62                     63
                      A                      A                      A
 Frequencies --   3127.2538              3132.7599              3138.8294
 Red. masses --      1.1003                 1.1013                 1.1014
 Frc consts  --      6.3398                 6.3683                 6.3936
 IR Inten    --     33.5031                32.7506                35.0130

 - Thermochemistry -
 -------------------
 Temperature   298.150 Kelvin.  Pressure   1.00000 Atm.
 Atom     1 has atomic number  6 and mass  12.00000

 Molecular mass:   100.12520 amu.
 Principal axes and moments of inertia in atomic units:
                           1         2         3
     Eigenvalues --   326.641451653.583401772.09834
           X            0.99998  -0.00668  -0.00011
           Y            0.00668   0.99995  -0.00699
           Z            0.00015   0.00698   0.99998
 This molecule is an asymmetric top.
 Rotational symmetry number  1.
 Rotational temperatures (Kelvin)      0.26517     0.05238     0.04888
 Rotational constants (GHZ):           5.52514     1.09141     1.01842
 Zero-point vibrational energy     575872.3 (Joules/Mol)
                                  137.63678 (Kcal/Mol)
 Warning -- explicit consideration of  11 degrees of freedom as
           vibrations may cause significant error
 Vibrational temperatures:     58.40   111.88   179.61   249.39   321.41
          (Kelvin)            360.99   420.75   426.49   515.02   628.56
                              744.31  1040.11  1081.25  1150.39  1221.04
                             1234.95  1303.21  1376.87  1383.67  1457.88
                             1503.63  1542.39  1576.90  1614.06  1661.43
                             1695.20  1769.40  1816.95  1867.16  1881.64
                             1920.09  1931.07  1983.61  1986.86  2000.97
                             2029.22  2037.67  2040.04  2130.99  2145.00
                             2149.69  2155.02  2160.74  2165.29  2170.80
                             2177.21  2185.30  4362.57  4379.19  4384.99
                             4389.30  4398.25  4402.74  4405.28  4428.49
                             4432.12  4441.87  4454.23  4461.70  4494.99
                             4499.42  4507.34  4516.08

 Zero-point correction=                           0.219338 (Hartree/Particle)
 Thermal correction to Energy=                    0.228681
 Thermal correction to Enthalpy=                  0.229625
 Thermal correction to Gibbs Free Energy=         0.184928
 Sum of electronic and zero-point Energies=           -276.119786
 Sum of electronic and thermal Energies=              -276.110443
 Sum of electronic and thermal Enthalpies=            -276.109499
 Sum of electronic and thermal Free Energies=         -276.154196

                     E (Thermal)             CV                S
                      KCal/Mol        Cal/Mol-Kelvin    Cal/Mol-Kelvin
 Total                  143.500             33.668             94.074
 Electronic               0.000              0.000              0.000
 Translational            0.889              2.981             39.722
 Rotational               0.889              2.981             28.350
 Vibrational            141.722             27.707             26.002
 Vibration     1          0.594              1.981              5.230
 Vibration     2          0.599              1.964              3.947
 Vibration     3          0.610              1.928              3.024
 Vibration     4          0.627              1.875              2.399
 Vibration     5          0.649              1.805              1.931
 Vibration     6          0.663              1.761              1.724
 Vibration     7          0.688              1.688              1.460
 Vibration     8          0.690              1.680              1.437
 Vibration     9          0.733              1.559              1.131
 Vibration    10          0.797              1.390              0.837
 Vibration    11          0.872              1.212              0.616

 Optimization completed.
    -- Stationary point found.
 Normal termination of Gaussian 16 at Sun Sep 29 18:39:55 2019.
