 Gaussian 16, Revision A.03,
 Gaussian 16:  EM64L-G16RevA.03 25-Dec-2016

 ----------------------------------------------------------------------
 #p m062x/cc-pVTZ opt=(calcfc,maxcycles=900,Tight) freq IOP(7/33=1,2/16
 =3) scf=(maxcycle=900)
 ----------------------------------------------------------------------

 ------------------------------
 Gaussian input prepared by ASE
 ------------------------------
 Symbolic Z-matrix:
 Charge =  0 Multiplicity = 1

 SCF Done:  E(RM062X) =  -276.304498706     A.U. after   11 cycles
 SCF Done:  E(RM062X) =  -276.326326729     A.U. after   12 cycles
 SCF Done:  E(RM062X) =  -276.326884725     A.U. after   10 cycles
 SCF Done:  E(RM062X) =  -276.331899587     A.U. after   10 cycles
 SCF Done:  E(RM062X) =  -276.284188419     A.U. after   11 cycles
 SCF Done:  E(RM062X) =  -276.330588201     A.U. after   11 cycles
 SCF Done:  E(RM062X) =  -276.332083998     A.U. after    8 cycles
 SCF Done:  E(RM062X) =  -276.319745708     A.U. after   10 cycles
 SCF Done:  E(RM062X) =  -276.334624374     A.U. after    9 cycles
 SCF Done:  E(RM062X) =  -276.335701705     A.U. after   10 cycles
 SCF Done:  E(RM062X) =  -276.336466945     A.U. after    6 cycles
 SCF Done:  E(RM062X) =  -276.336475771     A.U. after    7 cycles
 SCF Done:  E(RM062X) =  -276.336481274     A.U. after    8 cycles
 SCF Done:  E(RM062X) =  -276.336481864     A.U. after    7 cycles
 SCF Done:  E(RM062X) =  -276.336481889     A.U. after    6 cycles
 SCF Done:  E(RM062X) =  -276.336481901     A.U. after    5 cycles
 SCF Done:  E(RM062X) =  -276.336481901     A.U. after    3 cycles
 SCF Done:  E(RM062X) =  -276.336481901     A.U. after    3 cycles
 SCF Done:  E(RM062X) =  -276.336481901     A.U. after    3 cycles
 Optimization completed.
    -- Stationary point found.
 Normal termination of Gaussian 16 at Sat Sep 28 18:23:51 2019.

 ----------------------------------------------------------------------
 #P Geom=AllCheck Guess=TCheck SCRF=Check Test GenChk RM062X/CC-pVTZ Fr
 eq
 ----------------------------------------------------------------------

 Structure from the checkpoint file:  "/scratch/harms.n/gauss_scrdir/Gau-23947.chk"
 ------------------------------
 Gaussian input prepared by ASE
 ------------------------------
 Charge =  0 Multiplicity = 1

                         Standard orientation:
 ---------------------------------------------------------------------
 Center     Atomic      Atomic             Coordinates (Angstroms)
 Number     Number       Type             X           Y           Z
 ---------------------------------------------------------------------
      1          6           0        1.508168   -1.009773   -0.166924
      2          6           0        0.081354   -1.132214   -0.706821
      3          6           0       -1.013733   -1.111560    0.368994
      4          6           0        1.824510    0.279468    0.589226
      5          6           0       -1.595931    0.263641    0.709272
      6          6           0        1.653886    1.534584   -0.259041
      7          6           0       -2.369053    0.892974   -0.444735
      8          1           0        2.855535    0.226846    0.944909
      9          1           0        1.202263    0.345316    1.484587
     10          1           0        2.206745   -1.101371   -1.003625
     11          1           0        1.701893   -1.861455    0.490824
     12          1           0        0.019716   -2.074716   -1.253585
     13          1           0       -0.104068   -0.351823   -1.448057
     14          1           0       -0.619128   -1.572319    1.279372
     15          1           0       -1.843599   -1.745179    0.045205
     16          1           0       -2.268248    0.150022    1.562331
     17          1           0       -0.807867    0.944640    1.032930
     18          1           0        2.267495    1.475736   -1.159979
     19          1           0        0.619089    1.670854   -0.575425
     20          1           0        1.950541    2.427788    0.290129
     21          1           0       -3.169120    0.230677   -0.780052
     22          1           0       -1.726415    1.093154   -1.302629
     23          1           0       -2.820037    1.839099   -0.146754
 ---------------------------------------------------------------------

 SCF Done:  E(RM062X) =  -276.336481901     A.U. after    1 cycles

 The electronic state is 1-A.
 Alpha  occ. eigenvalues --  -10.52622 -10.52613 -10.52518 -10.52458 -10.52351
 Alpha  occ. eigenvalues --  -10.51967 -10.51967  -0.91245  -0.87324  -0.82341
 Alpha  occ. eigenvalues --   -0.76442  -0.71923  -0.66273  -0.62626  -0.54907
 Alpha  occ. eigenvalues --   -0.53640  -0.50479  -0.49772  -0.47270  -0.46813
 Alpha  occ. eigenvalues --   -0.44263  -0.44074  -0.41757  -0.39994  -0.39642
 Alpha  occ. eigenvalues --   -0.38996  -0.36881  -0.36364  -0.35999
 Alpha virt. eigenvalues --    0.06584   0.08457   0.08719   0.09156   0.11891
 Alpha virt. eigenvalues --    0.12777   0.12989   0.13978   0.14189   0.15020
 Alpha virt. eigenvalues --    0.15329   0.16297   0.18055   0.18561   0.19792

 Mulliken charges:
               1
     1  C   -0.272182
     2  C   -0.300850
     3  C   -0.283392
     4  C   -0.274464
     5  C   -0.301611
     6  C   -0.382612
     7  C   -0.362180
     8  H    0.139030
     9  H    0.143695
    10  H    0.139311
    11  H    0.138934
    12  H    0.143474
    13  H    0.153535
    14  H    0.148606
    15  H    0.142651
    16  H    0.140177
    17  H    0.157417
    18  H    0.123188
    19  H    0.122933
    20  H    0.125658
    21  H    0.118444
    22  H    0.118976
    23  H    0.121263
 Sum of Mulliken charges =  -0.00000

 Dipole moment (field-independent basis, Debye):
    X=              0.0344    Y=             -0.0673    Z=              0.0876  Tot=              0.1157
 Quadrupole moment (field-independent basis, Debye-Ang):
   XX=            -48.5122   YY=            -48.9757   ZZ=            -48.9582
   XY=              0.2127   XZ=             -0.2642   YZ=              0.2422

  Exact polarizability:  90.904  -0.735  84.522   0.183  -0.065  76.838
 Approx polarizability:  98.166  -0.025  97.449  -0.027  -0.131  97.162

                      1                      2                      3
                      A                      A                      A
 Frequencies --     54.3639               106.6485               147.7647
 Red. masses --      2.4833                 2.2486                 1.5233
 Frc consts  --      0.0043                 0.0151                 0.0196
 IR Inten    --      0.0188                 0.0285                 0.0844

                      4                      5                      6
                      A                      A                      A
 Frequencies --    190.0711               223.9386               263.5637
 Red. masses --      1.7736                 1.4854                 1.7668
 Frc consts  --      0.0378                 0.0439                 0.0723
 IR Inten    --      0.0184                 0.0596                 0.0354

                      7                      8                      9
                      A                      A                      A
 Frequencies --    280.6644               314.3290               393.8277
 Red. masses --      1.5228                 1.8413                 1.7178
 Frc consts  --      0.0707                 0.1072                 0.1570
 IR Inten    --      0.1566                 0.1006                 0.1466

                     10                     11                     12
                      A                      A                      A
 Frequencies --    423.2170               485.3804               738.2516
 Red. masses --      1.8955                 1.8376                 1.3259
 Frc consts  --      0.2000                 0.2551                 0.4258
 IR Inten    --      0.3044                 0.5268                 0.1403

                     13                     14                     15
                      A                      A                      A
 Frequencies --    758.4716               790.3654               837.3538
 Red. masses --      1.3525                 1.6495                 1.8989
 Frc consts  --      0.4584                 0.6071                 0.7845
 IR Inten    --      9.1935                 3.7796                 0.2143

                     16                     17                     18
                      A                      A                      A
 Frequencies --    875.8351               879.6070               945.4764
 Red. masses --      1.4611                 1.6180                 1.7728
 Frc consts  --      0.6603                 0.7376                 0.9337
 IR Inten    --      1.6764                 0.2612                 3.6473

                     19                     20                     21
                      A                      A                      A
 Frequencies --    965.0681              1005.6163              1056.0773
 Red. masses --      1.4157                 1.7998                 1.4377
 Frc consts  --      0.7769                 1.0724                 0.9447
 IR Inten    --      0.8203                 0.1410                 0.0679

                     22                     23                     24
                      A                      A                      A
 Frequencies --   1074.5484              1084.9184              1134.8975
 Red. masses --      1.4568                 1.9032                 1.8662
 Frc consts  --      0.9911                 1.3199                 1.4162
 IR Inten    --      0.2609                 0.5462                 0.0518

                     25                     26                     27
                      A                      A                      A
 Frequencies --   1145.2124              1170.2255              1220.9678
 Red. masses --      1.9855                 2.0745                 1.3401
 Frc consts  --      1.5342                 1.6738                 1.1770
 IR Inten    --      1.8440                 0.2569                 0.2992

                     28                     29                     30
                      A                      A                      A
 Frequencies --   1264.5759              1284.7568              1316.4524
 Red. masses --      1.3107                 1.2193                 1.2239
 Frc consts  --      1.2350                 1.1858                 1.2497
 IR Inten    --      0.0853                 0.4484                 0.9996

                     31                     32                     33
                      A                      A                      A
 Frequencies --   1330.6060              1357.4295              1376.4487
 Red. masses --      1.1064                 1.3704                 1.3631
 Frc consts  --      1.1541                 1.4878                 1.5215
 IR Inten    --      1.1910                 2.2563                 1.2254

                     34                     35                     36
                      A                      A                      A
 Frequencies --   1390.7666              1394.3123              1400.3863
 Red. masses --      1.4146                 1.4965                 1.4502
 Frc consts  --      1.6121                 1.7142                 1.6756
 IR Inten    --      0.5223                 1.1416                 0.4076

                     37                     38                     39
                      A                      A                      A
 Frequencies --   1413.9317              1417.7699              1484.0400
 Red. masses --      1.2880                 1.3002                 1.0778
 Frc consts  --      1.5172                 1.5399                 1.3986
 IR Inten    --      3.4917                 9.7167                 0.8936

                     40                     41                     42
                      A                      A                      A
 Frequencies --   1487.6594              1489.7311              1497.6206
 Red. masses --      1.0699                 1.0635                 1.0792
 Frc consts  --      1.3951                 1.3906                 1.4261
 IR Inten    --      1.9910                 2.3747                 6.2873

                     43                     44                     45
                      A                      A                      A
 Frequencies --   1501.8964              1504.6015              1509.7228
 Red. masses --      1.0574                 1.0453                 1.0766
 Frc consts  --      1.4052                 1.3943                 1.4457
 IR Inten    --      5.3300                10.1300                10.0147

                     46                     47                     48
                      A                      A                      A
 Frequencies --   1513.9101              1519.2444              3040.1047
 Red. masses --      1.0751                 1.0633                 1.0616
 Frc consts  --      1.4518                 1.4459                 5.7809
 IR Inten    --      4.5166                 1.4538                30.5885

                     49                     50                     51
                      A                      A                      A
 Frequencies --   3040.7988              3055.5427              3057.8880
 Red. masses --      1.0608                 1.0494                 1.0470
 Frc consts  --      5.7789                 5.7723                 5.7685
 IR Inten    --     15.8962                12.7976                15.9431

                     52                     53                     54
                      A                      A                      A
 Frequencies --   3060.8238              3062.3373              3068.8145
 Red. masses --      1.0520                 1.0623                 1.0653
 Frc consts  --      5.8070                 5.8697                 5.9112
 IR Inten    --     20.6929                22.8561                10.2383

                     55                     56                     57
                      A                      A                      A
 Frequencies --   3076.1249              3081.5464              3092.1209
 Red. masses --      1.0973                 1.0927                 1.1011
 Frc consts  --      6.1175                 6.1135                 6.2027
 IR Inten    --      3.6398                58.6742                35.2847

                     58                     59                     60
                      A                      A                      A
 Frequencies --   3100.0672              3107.2363              3125.4271
 Red. masses --      1.1010                 1.0957                 1.1013
 Frc consts  --      6.2342                 6.2328                 6.3381
 IR Inten    --     43.8602                18.3590                45.3162

                     61                     62                     63
                      A                      A                      A
 Frequencies --   3129.8358              3133.0507              3134.2217
 Red. masses --      1.1011                 1.1010                 1.1011
 Frc consts  --      6.3548                 6.3675                 6.3731
 IR Inten    --     57.2144                32.3323                16.4643

 - Thermochemistry -
 -------------------
 Temperature   298.150 Kelvin.  Pressure   1.00000 Atm.
 Atom     1 has atomic number  6 and mass  12.00000

 Molecular mass:   100.12520 amu.
 Principal axes and moments of inertia in atomic units:
                           1         2         3
     Eigenvalues --   543.470761095.657931362.61134
           X            1.00000  -0.00092   0.00300
           Y            0.00095   0.99996  -0.00934
           Z           -0.00300   0.00934   0.99995
 This molecule is an asymmetric top.
 Rotational symmetry number  1.
 Warning -- assumption of classical behavior for rotation
           may cause significant error
 Rotational temperatures (Kelvin)      0.15937     0.07905     0.06356
 Rotational constants (GHZ):           3.32077     1.64718     1.32447
 Zero-point vibrational energy     576531.1 (Joules/Mol)
                                  137.79423 (Kcal/Mol)
 Warning -- explicit consideration of  11 degrees of freedom as
           vibrations may cause significant error
 Vibrational temperatures:     78.22   153.44   212.60   273.47   322.20
          (Kelvin)            379.21   403.81   452.25   566.63   608.91
                              698.35  1062.18  1091.27  1137.16  1204.77
                             1260.13  1265.56  1360.33  1388.52  1446.86
                             1519.46  1546.04  1560.96  1632.86  1647.71
                             1683.69  1756.70  1819.44  1848.48  1894.08
                             1914.45  1953.04  1980.40  2001.00  2006.10
                             2014.84  2034.33  2039.85  2135.20  2140.41
                             2143.39  2154.74  2160.89  2164.79  2172.15
                             2178.18  2185.85  4374.03  4375.03  4396.24
                             4399.62  4403.84  4406.02  4415.34  4425.86
                             4433.66  4448.87  4460.31  4470.62  4496.79
                             4503.14  4507.76  4509.45

 Zero-point correction=                           0.219589 (Hartree/Particle)
 Thermal correction to Energy=                    0.228754
 Thermal correction to Enthalpy=                  0.229698
 Thermal correction to Gibbs Free Energy=         0.185947
 Sum of electronic and zero-point Energies=           -276.116893
 Sum of electronic and thermal Energies=              -276.107728
 Sum of electronic and thermal Enthalpies=            -276.106784
 Sum of electronic and thermal Free Energies=         -276.150535

                     E (Thermal)             CV                S
                      KCal/Mol        Cal/Mol-Kelvin    Cal/Mol-Kelvin
 Total                  143.545             33.612             92.082
 Electronic               0.000              0.000              0.000
 Translational            0.889              2.981             39.722
 Rotational               0.889              2.981             28.186
 Vibrational            141.768             27.651             24.175
 Vibration     1          0.596              1.976              4.652
 Vibration     2          0.606              1.944              3.329
 Vibration     3          0.617              1.905              2.701
 Vibration     4          0.633              1.854              2.227
 Vibration     5          0.649              1.805              1.927
 Vibration     6          0.670              1.740              1.638
 Vibration     7          0.680              1.709              1.530
 Vibration     8          0.702              1.646              1.339
 Vibration     9          0.761              1.483              0.986
 Vibration    10          0.785              1.420              0.881
 Vibration    11          0.841              1.282              0.696

 Optimization completed.
    -- Stationary point found.
 Normal termination of Gaussian 16 at Sat Sep 28 22:22:37 2019.
