 Gaussian 16, Revision A.03,
 Gaussian 16:  EM64L-G16RevA.03 25-Dec-2016

 ----------------------------------------------------------------------
 #p m062x/cc-pVTZ opt=(calcfc,maxcycles=900,Tight) freq IOP(7/33=1,2/16
 =3) scf=(maxcycle=900)
 ----------------------------------------------------------------------

 ------------------------------
 Gaussian input prepared by ASE
 ------------------------------
 Symbolic Z-matrix:
 Charge =  0 Multiplicity = 1

 SCF Done:  E(RM062X) =  -276.296406177     A.U. after   11 cycles
 SCF Done:  E(RM062X) =  -276.317264912     A.U. after   11 cycles
 SCF Done:  E(RM062X) =  -276.319738255     A.U. after   10 cycles
 SCF Done:  E(RM062X) =  -276.321295335     A.U. after   10 cycles
 SCF Done:  E(RM062X) =  -276.324726440     A.U. after   12 cycles
 SCF Done:  E(RM062X) =  -276.330768996     A.U. after   10 cycles
 SCF Done:  E(RM062X) =  -276.320083083     A.U. after   11 cycles
 SCF Done:  E(RM062X) =  -276.334128569     A.U. after   10 cycles
 SCF Done:  E(RM062X) =  -276.334394744     A.U. after   11 cycles
 SCF Done:  E(RM062X) =  -276.336227969     A.U. after   10 cycles
 SCF Done:  E(RM062X) =  -276.337205637     A.U. after    4 cycles
 SCF Done:  E(RM062X) =  -276.337205643     A.U. after    4 cycles
 SCF Done:  E(RM062X) =  -276.337205651     A.U. after    4 cycles
 SCF Done:  E(RM062X) =  -276.337205656     A.U. after    4 cycles
 SCF Done:  E(RM062X) =  -276.337205657     A.U. after    4 cycles
 SCF Done:  E(RM062X) =  -276.337205656     A.U. after    3 cycles
 SCF Done:  E(RM062X) =  -276.337205658     A.U. after    4 cycles
 SCF Done:  E(RM062X) =  -276.337205657     A.U. after    4 cycles
 SCF Done:  E(RM062X) =  -276.337205658     A.U. after    2 cycles
 Optimization completed.
    -- Stationary point found.
 Normal termination of Gaussian 16 at Sat Sep 28 17:06:31 2019.

 ----------------------------------------------------------------------
 #P Geom=AllCheck Guess=TCheck SCRF=Check Test GenChk RM062X/CC-pVTZ Fr
 eq
 ----------------------------------------------------------------------

 Structure from the checkpoint file:  "/scratch/harms.n/gauss_scrdir/Gau-27938.chk"
 ------------------------------
 Gaussian input prepared by ASE
 ------------------------------
 Charge =  0 Multiplicity = 1

                         Standard orientation:
 ---------------------------------------------------------------------
 Center     Atomic      Atomic             Coordinates (Angstroms)
 Number     Number       Type             X           Y           Z
 ---------------------------------------------------------------------
      1          6           0       -1.462064    0.784548    0.577969
      2          6           0       -0.357464    1.555471   -0.149333
      3          6           0        0.831237    0.722104   -0.621963
      4          6           0       -2.104048   -0.343461   -0.241856
      5          6           0        1.616680    0.062906    0.506237
      6          6           0       -1.461631   -1.715069   -0.046256
      7          6           0        2.782175   -0.768960   -0.013512
      8          1           0       -2.084191   -0.073660   -1.301851
      9          1           0       -3.158295   -0.423878    0.028334
     10          1           0       -2.232295    1.505552    0.857535
     11          1           0       -1.081214    0.375934    1.517887
     12          1           0        0.008575    2.349566    0.507651
     13          1           0       -0.802920    2.053816   -1.014533
     14          1           0        1.510163    1.366233   -1.187525
     15          1           0        0.491552   -0.041905   -1.327404
     16          1           0        1.984917    0.838981    1.182866
     17          1           0        0.956116   -0.571701    1.100632
     18          1           0       -1.489855   -2.001620    1.006487
     19          1           0       -1.992469   -2.480293   -0.612755
     20          1           0       -0.419509   -1.732826   -0.362894
     21          1           0        3.466430   -0.155327   -0.601459
     22          1           0        2.423701   -1.572674   -0.659465
     23          1           0        3.349996   -1.221437    0.798778
 ---------------------------------------------------------------------

 SCF Done:  E(RM062X) =  -276.337205658     A.U. after    1 cycles

 The electronic state is 1-A.
 Alpha  occ. eigenvalues --  -10.52712 -10.52551 -10.52500 -10.52425 -10.52399
 Alpha  occ. eigenvalues --  -10.51977 -10.51976  -0.91284  -0.87313  -0.82564
 Alpha  occ. eigenvalues --   -0.76701  -0.70342  -0.67390  -0.63008  -0.55312
 Alpha  occ. eigenvalues --   -0.52262  -0.50770  -0.49840  -0.47897  -0.46329
 Alpha  occ. eigenvalues --   -0.44829  -0.43068  -0.42203  -0.40128  -0.39925
 Alpha  occ. eigenvalues --   -0.38592  -0.36684  -0.36407  -0.36358
 Alpha virt. eigenvalues --    0.06731   0.08104   0.08804   0.08988   0.11834
 Alpha virt. eigenvalues --    0.12180   0.13011   0.13428   0.14489   0.15691
 Alpha virt. eigenvalues --    0.15948   0.16915   0.17453   0.18049   0.19467

 Mulliken charges:
               1
     1  C   -0.280234
     2  C   -0.283019
     3  C   -0.297185
     4  C   -0.247493
     5  C   -0.278913
     6  C   -0.390797
     7  C   -0.349777
     8  H    0.135055
     9  H    0.129594
    10  H    0.138672
    11  H    0.143227
    12  H    0.138993
    13  H    0.142122
    14  H    0.147358
    15  H    0.151991
    16  H    0.138379
    17  H    0.147746
    18  H    0.123865
    19  H    0.122866
    20  H    0.126992
    21  H    0.111990
    22  H    0.113234
    23  H    0.115333
 Sum of Mulliken charges =  -0.00000

 Dipole moment (field-independent basis, Debye):
    X=             -0.0996    Y=              0.1026    Z=              0.0356  Tot=              0.1473
 Quadrupole moment (field-independent basis, Debye-Ang):
   XX=            -48.7373   YY=            -49.0287   ZZ=            -48.8019
   XY=              0.4538   XZ=              0.2086   YZ=             -0.0648

  Exact polarizability:  92.774  -1.223  85.149  -0.073   0.191  75.663
 Approx polarizability:  97.953   0.090  97.415   0.157   0.163  97.346

                      1                      2                      3
                      A                      A                      A
 Frequencies --     63.0629                81.2111               138.5318
 Red. masses --      2.4879                 1.7308                 1.7718
 Frc consts  --      0.0058                 0.0067                 0.0200
 IR Inten    --      0.0041                 0.0327                 0.0168

                      4                      5                      6
                      A                      A                      A
 Frequencies --    196.3643               223.2408               239.8993
 Red. masses --      2.1775                 2.0058                 1.1627
 Frc consts  --      0.0495                 0.0589                 0.0394
 IR Inten    --      0.0494                 0.0289                 0.1513

                      7                      8                      9
                      A                      A                      A
 Frequencies --    271.7195               301.8225               365.5261
 Red. masses --      1.4200                 2.0450                 1.8778
 Frc consts  --      0.0618                 0.1098                 0.1478
 IR Inten    --      0.0317                 0.0678                 0.2592

                     10                     11                     12
                      A                      A                      A
 Frequencies --    420.4539               504.1350               735.0777
 Red. masses --      2.1203                 2.0501                 1.1363
 Frc consts  --      0.2208                 0.3070                 0.3617
 IR Inten    --      0.0644                 0.3963                 6.2691

                     13                     14                     15
                      A                      A                      A
 Frequencies --    751.1430               792.9450               833.6518
 Red. masses --      1.3667                 1.3414                 1.8995
 Frc consts  --      0.4543                 0.4969                 0.7778
 IR Inten    --      1.7446                 1.4186                 0.6205

                     16                     17                     18
                      A                      A                      A
 Frequencies --    867.5204               903.4369               954.6127
 Red. masses --      1.7775                 1.4375                 1.5048
 Frc consts  --      0.7882                 0.6913                 0.8079
 IR Inten    --      0.8680                 1.3399                 2.0735

                     19                     20                     21
                      A                      A                      A
 Frequencies --    964.3937              1043.7393              1060.7005
 Red. masses --      1.5664                 2.0944                 1.3779
 Frc consts  --      0.8584                 1.3443                 0.9134
 IR Inten    --      1.7635                 1.1150                 0.2969

                     22                     23                     24
                      A                      A                      A
 Frequencies --   1065.5636              1080.8602              1129.8132
 Red. masses --      1.6749                 1.8079                 1.8639
 Frc consts  --      1.1204                 1.2444                 1.4018
 IR Inten    --      0.3943                 0.0902                 0.1957

                     25                     26                     27
                      A                      A                      A
 Frequencies --   1152.3651              1177.3923              1238.3140
 Red. masses --      2.0430                 2.1013                 1.3605
 Frc consts  --      1.5984                 1.7162                 1.2292
 IR Inten    --      1.7597                 0.2376                 0.1866

                     28                     29                     30
                      A                      A                      A
 Frequencies --   1253.2851              1305.5301              1306.7349
 Red. masses --      1.3859                 1.2060                 1.2387
 Frc consts  --      1.2825                 1.2111                 1.2462
 IR Inten    --      0.5204                 0.0399                 1.4211

                     31                     32                     33
                      A                      A                      A
 Frequencies --   1328.2414              1340.3881              1370.3884
 Red. masses --      1.1591                 1.1540                 1.3124
 Frc consts  --      1.2048                 1.2215                 1.4522
 IR Inten    --      0.9263                 1.4254                 1.5555

                     34                     35                     36
                      A                      A                      A
 Frequencies --   1388.7400              1396.9305              1407.5630
 Red. masses --      1.5365                 1.4682                 1.5824
 Frc consts  --      1.7459                 1.6881                 1.8472
 IR Inten    --      0.0728                 1.8651                 0.7252

                     37                     38                     39
                      A                      A                      A
 Frequencies --   1414.0261              1416.1348              1487.4252
 Red. masses --      1.2554                 1.2872                 1.0726
 Frc consts  --      1.4789                 1.5209                 1.3981
 IR Inten    --      3.6292                 3.4992                 1.4423

                     40                     41                     42
                      A                      A                      A
 Frequencies --   1489.5497              1492.0137              1498.6658
 Red. masses --      1.0626                 1.0621                 1.0728
 Frc consts  --      1.3891                 1.3930                 1.4196
 IR Inten    --      3.3465                 2.5558                 2.8571

                     43                     44                     45
                      A                      A                      A
 Frequencies --   1502.6653              1504.1278              1507.9510
 Red. masses --      1.0528                 1.0720                 1.0741
 Frc consts  --      1.4006                 1.4290                 1.4390
 IR Inten    --      5.4023                 3.1724                 8.1897

                     46                     47                     48
                      A                      A                      A
 Frequencies --   1510.8840              1519.5065              3040.5310
 Red. masses --      1.0542                 1.0798                 1.0609
 Frc consts  --      1.4178                 1.4690                 5.7786
 IR Inten    --     10.9321                 5.7376                16.7973

                     49                     50                     51
                      A                      A                      A
 Frequencies --   3044.0312              3047.7716              3052.2035
 Red. masses --      1.0621                 1.0653                 1.0515
 Frc consts  --      5.7986                 5.8303                 5.7712
 IR Inten    --     12.7322                14.9599                 9.1616

                     52                     53                     54
                      A                      A                      A
 Frequencies --   3054.0398              3056.4306              3061.8547
 Red. masses --      1.0633                 1.0502                 1.0391
 Frc consts  --      5.8431                 5.7805                 5.7394
 IR Inten    --     14.1630                50.5089                16.4403

                     55                     56                     57
                      A                      A                      A
 Frequencies --   3071.5329              3080.0110              3089.2486
 Red. masses --      1.0971                 1.0974                 1.0985
 Frc consts  --      6.0983                 6.1334                 6.1768
 IR Inten    --      8.9220                30.7901                32.4256

                     58                     59                     60
                      A                      A                      A
 Frequencies --   3093.7266              3096.5437              3121.4751
 Red. masses --      1.1012                 1.1001                 1.1025
 Frc consts  --      6.2097                 6.2147                 6.3290
 IR Inten    --     51.3624                37.8269                56.3122

                     61                     62                     63
                      A                      A                      A
 Frequencies --   3124.8483              3132.7982              3143.7566
 Red. masses --      1.1014                 1.1014                 1.0998
 Frc consts  --      6.3367                 6.3688                 6.4043
 IR Inten    --     29.7381                30.3828                30.1253

 - Thermochemistry -
 -------------------
 Temperature   298.150 Kelvin.  Pressure   1.00000 Atm.
 Atom     1 has atomic number  6 and mass  12.00000

 Molecular mass:   100.12520 amu.
 Principal axes and moments of inertia in atomic units:
                           1         2         3
     Eigenvalues --   523.993601180.412131507.29805
           X            1.00000  -0.00297  -0.00106
           Y            0.00297   0.99999   0.00154
           Z            0.00105  -0.00154   1.00000
 This molecule is an asymmetric top.
 Rotational symmetry number  1.
 Warning -- assumption of classical behavior for rotation
           may cause significant error
 Rotational temperatures (Kelvin)      0.16530     0.07338     0.05746
 Rotational constants (GHZ):           3.44420     1.52891     1.19734
 Zero-point vibrational energy     576056.1 (Joules/Mol)
                                  137.68070 (Kcal/Mol)
 Warning -- explicit consideration of  11 degrees of freedom as
           vibrations may cause significant error
 Vibrational temperatures:     90.73   116.84   199.32   282.52   321.19
          (Kelvin)            345.16   390.94   434.26   525.91   604.94
                              725.34  1057.61  1080.73  1140.87  1199.44
                             1248.17  1299.84  1373.47  1387.55  1501.71
                             1526.11  1533.11  1555.12  1625.55  1658.00
                             1694.00  1781.66  1803.20  1878.37  1880.10
                             1911.04  1928.52  1971.68  1998.09  2009.87
                             2025.17  2034.47  2037.50  2140.07  2143.13
                             2146.67  2156.25  2162.00  2164.10  2169.61
                             2173.83  2186.23  4374.65  4379.68  4385.06
                             4391.44  4394.08  4397.52  4405.33  4419.25
                             4431.45  4444.74  4451.18  4455.24  4491.11
                             4495.96  4507.40  4523.16

 Zero-point correction=                           0.219408 (Hartree/Particle)
 Thermal correction to Energy=                    0.228684
 Thermal correction to Enthalpy=                  0.229628
 Thermal correction to Gibbs Free Energy=         0.185499
 Sum of electronic and zero-point Energies=           -276.117797
 Sum of electronic and thermal Energies=              -276.108522
 Sum of electronic and thermal Enthalpies=            -276.107578
 Sum of electronic and thermal Free Energies=         -276.151706

                     E (Thermal)             CV                S
                      KCal/Mol        Cal/Mol-Kelvin    Cal/Mol-Kelvin
 Total                  143.501             33.680             92.876
 Electronic               0.000              0.000              0.000
 Translational            0.889              2.981             39.722
 Rotational               0.889              2.981             28.324
 Vibrational            141.724             27.718             24.831
 Vibration     1          0.597              1.972              4.359
 Vibration     2          0.600              1.962              3.861
 Vibration     3          0.614              1.915              2.824
 Vibration     4          0.636              1.845              2.167
 Vibration     5          0.649              1.806              1.933
 Vibration     6          0.657              1.779              1.804
 Vibration     7          0.675              1.725              1.585
 Vibration     8          0.694              1.670              1.407
 Vibration     9          0.739              1.543              1.099
 Vibration    10          0.783              1.426              0.890
 Vibration    11          0.859              1.241              0.648

                           ! Non-Optimized Parameters !
 Normal termination of Gaussian 16 at Sat Sep 28 21:01:30 2019.
