 Gaussian 16, Revision A.03,
 Gaussian 16:  EM64L-G16RevA.03 25-Dec-2016

 ----------------------------------------------------------------------
 #p m062x/cc-pVTZ opt=(calcfc,maxcycles=900,Tight) freq IOP(7/33=1,2/16
 =3) scf=(maxcycle=900)
 ----------------------------------------------------------------------

 ------------------------------
 Gaussian input prepared by ASE
 ------------------------------
 Symbolic Z-matrix:
 Charge =  0 Multiplicity = 1

 SCF Done:  E(RM062X) =  -276.303091589     A.U. after   11 cycles
 SCF Done:  E(RM062X) =  -276.321027771     A.U. after   10 cycles
 SCF Done:  E(RM062X) =  -276.324854446     A.U. after   10 cycles
 SCF Done:  E(RM062X) =  -276.323495195     A.U. after   10 cycles
 SCF Done:  E(RM062X) =  -276.301013128     A.U. after   11 cycles
 SCF Done:  E(RM062X) =  -276.304401180     A.U. after   10 cycles
 SCF Done:  E(RM062X) =  -276.325916708     A.U. after    8 cycles
 SCF Done:  E(RM062X) =  -276.328023947     A.U. after   10 cycles
 SCF Done:  E(RM062X) =  -276.327710800     A.U. after   10 cycles
 SCF Done:  E(RM062X) =  -276.326017382     A.U. after   10 cycles
 SCF Done:  E(RM062X) =  -276.332369864     A.U. after    5 cycles
 SCF Done:  E(RM062X) =  -276.332369866     A.U. after    5 cycles
 SCF Done:  E(RM062X) =  -276.332369866     A.U. after    4 cycles
 SCF Done:  E(RM062X) =  -276.332369867     A.U. after    4 cycles
 SCF Done:  E(RM062X) =  -276.332369868     A.U. after    4 cycles
 SCF Done:  E(RM062X) =  -276.332369866     A.U. after    4 cycles
 SCF Done:  E(RM062X) =  -276.332369869     A.U. after    4 cycles
 SCF Done:  E(RM062X) =  -276.332369869     A.U. after    2 cycles
 SCF Done:  E(RM062X) =  -276.332369869     A.U. after    3 cycles
 Optimization completed.
    -- Stationary point found.
 Normal termination of Gaussian 16 at Sat Sep 28 16:08:58 2019.

 ----------------------------------------------------------------------
 #P Geom=AllCheck Guess=TCheck SCRF=Check Test GenChk RM062X/CC-pVTZ Fr
 eq
 ----------------------------------------------------------------------

 Structure from the checkpoint file:  "/scratch/harms.n/gauss_scrdir/Gau-32982.chk"
 ------------------------------
 Gaussian input prepared by ASE
 ------------------------------
 Charge =  0 Multiplicity = 1

                         Standard orientation:
 ---------------------------------------------------------------------
 Center     Atomic      Atomic             Coordinates (Angstroms)
 Number     Number       Type             X           Y           Z
 ---------------------------------------------------------------------
      1          6           0       -0.948507    0.645285   -0.880019
      2          6           0       -0.192841    1.393293    0.226981
      3          6           0        0.958148    0.622590    0.881790
      4          6           0       -2.172999   -0.136549   -0.403151
      5          6           0        2.080675    0.232576   -0.098614
      6          6           0       -1.882328   -1.201075    0.648973
      7          6           0        2.129565   -1.261749   -0.403188
      8          1           0       -2.644475   -0.606855   -1.268666
      9          1           0       -2.904940    0.570102   -0.002560
     10          1           0       -0.265254   -0.030750   -1.401133
     11          1           0       -1.284623    1.363849   -1.629810
     12          1           0       -0.905961    1.707348    0.995324
     13          1           0        0.226804    2.312781   -0.188124
     14          1           0        0.581921   -0.279418    1.367213
     15          1           0        1.366498    1.245704    1.679158
     16          1           0        1.959418    0.790605   -1.030711
     17          1           0        3.046621    0.535717    0.307358
     18          1           0       -1.552525   -0.753941    1.586650
     19          1           0       -2.773317   -1.791067    0.862718
     20          1           0       -1.099896   -1.884037    0.312358
     21          1           0        1.188514   -1.611149   -0.829742
     22          1           0        2.304309   -1.832643    0.510005
     23          1           0        2.926625   -1.502481   -1.106679
 ---------------------------------------------------------------------

 SCF Done:  E(RM062X) =  -276.332369869     A.U. after    1 cycles

 The electronic state is 1-A.
 Alpha  occ. eigenvalues --  -10.52667 -10.52610 -10.52529 -10.52410 -10.52330
 Alpha  occ. eigenvalues --  -10.51999 -10.51949  -0.91120  -0.87297  -0.82191
 Alpha  occ. eigenvalues --   -0.76955  -0.70856  -0.66403  -0.63471  -0.54166
 Alpha  occ. eigenvalues --   -0.53405  -0.50911  -0.49509  -0.47571  -0.46744
 Alpha  occ. eigenvalues --   -0.43952  -0.43420  -0.42724  -0.40114  -0.39460
 Alpha  occ. eigenvalues --   -0.39029  -0.36547  -0.36456  -0.35762
 Alpha virt. eigenvalues --    0.06813   0.08446   0.08699   0.08961   0.11935
 Alpha virt. eigenvalues --    0.12125   0.12904   0.13421   0.13658   0.15213
 Alpha virt. eigenvalues --    0.16159   0.16411   0.17065   0.17774   0.18465

 Mulliken charges:
               1
     1  C   -0.303325
     2  C   -0.304421
     3  C   -0.291306
     4  C   -0.220818
     5  C   -0.239562
     6  C   -0.406406
     7  C   -0.375083
     8  H    0.125793
     9  H    0.126354
    10  H    0.157786
    11  H    0.141221
    12  H    0.149019
    13  H    0.145169
    14  H    0.153949
    15  H    0.140402
    16  H    0.131224
    17  H    0.127619
    18  H    0.125637
    19  H    0.127010
    20  H    0.129539
    21  H    0.122112
    22  H    0.117825
    23  H    0.120261
 Sum of Mulliken charges =  -0.00000

 Dipole moment (field-independent basis, Debye):
    X=             -0.0052    Y=              0.1054    Z=             -0.0172  Tot=              0.1069
 Quadrupole moment (field-independent basis, Debye-Ang):
   XX=            -48.4728   YY=            -49.1267   ZZ=            -48.8029
   XY=              0.1485   XZ=              0.1411   YZ=              0.1470

  Exact polarizability:  91.677  -0.187  82.965   0.116  -0.292  77.680
 Approx polarizability:  98.165  -0.144  97.173  -0.300  -0.061  96.826

                      1                      2                      3
                      A                      A                      A
 Frequencies --     46.3615                94.5746               133.8367
 Red. masses --      2.4977                 2.1629                 1.9004
 Frc consts  --      0.0032                 0.0114                 0.0201
 IR Inten    --      0.0134                 0.0186                 0.0135

                      4                      5                      6
                      A                      A                      A
 Frequencies --    166.6907               241.1855               269.7275
 Red. masses --      2.0735                 1.2624                 2.0511
 Frc consts  --      0.0339                 0.0433                 0.0879
 IR Inten    --      0.0797                 0.0737                 0.1116

                      7                      8                      9
                      A                      A                      A
 Frequencies --    284.2019               310.0683               373.0551
 Red. masses --      1.7007                 1.2419                 2.0286
 Frc consts  --      0.0809                 0.0704                 0.1663
 IR Inten    --      0.0436                 0.1029                 0.3477

                     10                     11                     12
                      A                      A                      A
 Frequencies --    431.4442               470.5397               733.9481
 Red. masses --      1.7908                 1.6912                 1.4372
 Frc consts  --      0.1964                 0.2206                 0.4561
 IR Inten    --      0.2464                 0.3201                 2.4923

                     13                     14                     15
                      A                      A                      A
 Frequencies --    770.7813               802.9113               822.5811
 Red. masses --      1.1852                 1.7178                 1.8989
 Frc consts  --      0.4148                 0.6525                 0.7570
 IR Inten    --      2.0700                 1.5292                 1.2683

                     16                     17                     18
                      A                      A                      A
 Frequencies --    856.0767               905.4881               953.5290
 Red. masses --      1.5955                 1.5554                 1.6573
 Frc consts  --      0.6889                 0.7514                 0.8878
 IR Inten    --      0.8650                 1.3135                 2.0287

                     19                     20                     21
                      A                      A                      A
 Frequencies --    975.8095              1022.9178              1065.9741
 Red. masses --      1.7054                 1.7425                 1.7812
 Frc consts  --      0.9568                 1.0743                 1.1925
 IR Inten    --      1.6540                 2.4374                 2.5378

                     22                     23                     24
                      A                      A                      A
 Frequencies --   1075.6086              1092.2843              1134.9063
 Red. masses --      1.4255                 1.6974                 1.9143
 Frc consts  --      0.9717                 1.1932                 1.4527
 IR Inten    --      0.3745                 0.1453                 0.0747

                     25                     26                     27
                      A                      A                      A
 Frequencies --   1143.3136              1168.8125              1241.2251
 Red. masses --      2.0472                 1.9976                 1.2476
 Frc consts  --      1.5767                 1.6079                 1.1325
 IR Inten    --      1.0229                 0.1900                 0.3571

                     28                     29                     30
                      A                      A                      A
 Frequencies --   1246.2191              1299.7723              1312.5195
 Red. masses --      1.3600                 1.1865                 1.1860
 Frc consts  --      1.2444                 1.1810                 1.2037
 IR Inten    --      0.3764                 0.1916                 1.3056

                     31                     32                     33
                      A                      A                      A
 Frequencies --   1320.6347              1353.6703              1375.8718
 Red. masses --      1.1534                 1.3019                 1.3510
 Frc consts  --      1.1852                 1.4056                 1.5068
 IR Inten    --      0.7662                 2.2475                 0.8738

                     34                     35                     36
                      A                      A                      A
 Frequencies --   1385.7505              1390.9507              1398.7074
 Red. masses --      1.4450                 1.4228                 1.4490
 Frc consts  --      1.6349                 1.6218                 1.6702
 IR Inten    --      0.6703                 1.3768                 0.4453

                     37                     38                     39
                      A                      A                      A
 Frequencies --   1412.3727              1417.5098              1486.4964
 Red. masses --      1.2542                 1.3249                 1.0690
 Frc consts  --      1.4741                 1.5685                 1.3917
 IR Inten    --      2.4852                 5.8011                 0.5474

                     40                     41                     42
                      A                      A                      A
 Frequencies --   1491.5501              1496.7515              1498.4056
 Red. masses --      1.0671                 1.0620                 1.0739
 Frc consts  --      1.3987                 1.4018                 1.4206
 IR Inten    --      0.6246                 2.8117                 5.4599

                     43                     44                     45
                      A                      A                      A
 Frequencies --   1499.8575              1504.8314              1511.0271
 Red. masses --      1.0605                 1.0714                 1.0573
 Frc consts  --      1.4056                 1.4294                 1.4224
 IR Inten    --      0.9190                 7.9802                10.4990

                     46                     47                     48
                      A                      A                      A
 Frequencies --   1513.0693              1517.6282              3041.5939
 Red. masses --      1.0761                 1.0619                 1.0625
 Frc consts  --      1.4515                 1.4410                 5.7913
 IR Inten    --      7.0222                 9.9767                23.7800

                     49                     50                     51
                      A                      A                      A
 Frequencies --   3047.3037              3053.8729              3055.6828
 Red. masses --      1.0628                 1.0585                 1.0644
 Frc consts  --      5.8146                 5.8162                 5.8557
 IR Inten    --     17.6806                 0.7207                20.5743

                     52                     53                     54
                      A                      A                      A
 Frequencies --   3058.5700              3059.8352              3068.3716
 Red. masses --      1.0382                 1.0414                 1.0671
 Frc consts  --      5.7220                 5.7445                 5.9193
 IR Inten    --     24.1551                25.0834                15.2586

                     55                     56                     57
                      A                      A                      A
 Frequencies --   3077.7339              3085.2868              3092.9982
 Red. masses --      1.1002                 1.0946                 1.0968
 Frc consts  --      6.1405                 6.1391                 6.1818
 IR Inten    --     28.0321                28.1809                16.0374

                     58                     59                     60
                      A                      A                      A
 Frequencies --   3095.3910              3110.8079              3125.4598
 Red. masses --      1.1012                 1.1004                 1.1015
 Frc consts  --      6.2167                 6.2739                 6.3396
 IR Inten    --     49.2083                53.0691                35.6796

                     61                     62                     63
                      A                      A                      A
 Frequencies --   3127.5508              3133.4213              3135.8616
 Red. masses --      1.1016                 1.1013                 1.1011
 Frc consts  --      6.3489                 6.3707                 6.3793
 IR Inten    --     48.9659                30.2905                27.8128

 - Thermochemistry -
 -------------------
 Temperature   298.150 Kelvin.  Pressure   1.00000 Atm.
 Atom     1 has atomic number  6 and mass  12.00000

 Molecular mass:   100.12520 amu.
 Principal axes and moments of inertia in atomic units:
                           1         2         3
     Eigenvalues --   522.835881197.456471384.02043
           X            0.99998  -0.00228  -0.00558
           Y            0.00224   0.99998  -0.00670
           Z            0.00559   0.00669   0.99996
 This molecule is an asymmetric top.
 Rotational symmetry number  1.
 Warning -- assumption of classical behavior for rotation
           may cause significant error
 Rotational temperatures (Kelvin)      0.16566     0.07233     0.06258
 Rotational constants (GHZ):           3.45183     1.50715     1.30398
 Zero-point vibrational energy     576547.4 (Joules/Mol)
                                  137.79812 (Kcal/Mol)
 Warning -- explicit consideration of  11 degrees of freedom as
           vibrations may cause significant error
 Vibrational temperatures:     66.70   136.07   192.56   239.83   347.01
          (Kelvin)            388.08   408.90   446.12   536.74   620.75
                              677.00  1055.99  1108.98  1155.21  1183.51
                             1231.70  1302.80  1371.92  1403.97  1471.75
                             1533.70  1547.56  1571.55  1632.88  1644.97
                             1681.66  1785.85  1793.03  1870.08  1888.42
                             1900.10  1947.63  1979.57  1993.79  2001.27
                             2012.43  2032.09  2039.48  2138.74  2146.01
                             2153.49  2155.87  2157.96  2165.12  2174.03
                             2176.97  2183.53  4376.18  4384.39  4393.84
                             4396.45  4400.60  4402.42  4414.70  4428.17
                             4439.04  4450.13  4453.58  4475.76  4496.84
                             4499.85  4508.29  4511.81

 Zero-point correction=                           0.219595 (Hartree/Particle)
 Thermal correction to Energy=                    0.228845
 Thermal correction to Enthalpy=                  0.229789
 Thermal correction to Gibbs Free Energy=         0.185589
 Sum of electronic and zero-point Energies=           -276.112775
 Sum of electronic and thermal Energies=              -276.103525
 Sum of electronic and thermal Enthalpies=            -276.102581
 Sum of electronic and thermal Free Energies=         -276.146780

                     E (Thermal)             CV                S
                      KCal/Mol        Cal/Mol-Kelvin    Cal/Mol-Kelvin
 Total                  143.602             33.618             93.026
 Electronic               0.000              0.000              0.000
 Translational            0.889              2.981             39.722
 Rotational               0.889              2.981             28.251
 Vibrational            141.825             27.656             25.053
 Vibration     1          0.595              1.979              4.967
 Vibration     2          0.603              1.953              3.563
 Vibration     3          0.613              1.920              2.890
 Vibration     4          0.624              1.883              2.472
 Vibration     5          0.658              1.777              1.794
 Vibration     6          0.674              1.729              1.598
 Vibration     7          0.683              1.703              1.508
 Vibration     8          0.699              1.655              1.362
 Vibration     9          0.744              1.527              1.067
 Vibration    10          0.792              1.402              0.854
 Vibration    11          0.828              1.315              0.736

                           ! Non-Optimized Parameters !
 Normal termination of Gaussian 16 at Sat Sep 28 20:07:06 2019.
