 Gaussian 16, Revision A.03,
 Gaussian 16:  EM64L-G16RevA.03 25-Dec-2016

 ----------------------------------------------------------------------
 #p m062x/cc-pVTZ opt=(calcfc,maxcycles=900,Tight) freq IOP(7/33=1,2/16
 =3) scf=(maxcycle=900)
 ----------------------------------------------------------------------

 ------------------------------
 Gaussian input prepared by ASE
 ------------------------------
 Symbolic Z-matrix:
 Charge =  0 Multiplicity = 1

 SCF Done:  E(RM062X) =  -276.305081355     A.U. after   11 cycles
 SCF Done:  E(RM062X) =  -276.322436591     A.U. after   11 cycles
 SCF Done:  E(RM062X) =  -276.328839648     A.U. after   10 cycles
 SCF Done:  E(RM062X) =  -276.322549779     A.U. after   11 cycles
 SCF Done:  E(RM062X) =  -276.332862298     A.U. after   10 cycles
 SCF Done:  E(RM062X) =  -276.334506784     A.U. after   11 cycles
 SCF Done:  E(RM062X) =  -276.326657280     A.U. after   11 cycles
 SCF Done:  E(RM062X) =  -276.336236606     A.U. after    9 cycles
 SCF Done:  E(RM062X) =  -276.337889108     A.U. after   11 cycles
 SCF Done:  E(RM062X) =  -276.339256842     A.U. after   10 cycles
 SCF Done:  E(RM062X) =  -276.340148025     A.U. after    7 cycles
 SCF Done:  E(RM062X) =  -276.340151565     A.U. after    7 cycles
 SCF Done:  E(RM062X) =  -276.340152835     A.U. after    6 cycles
 SCF Done:  E(RM062X) =  -276.340153862     A.U. after    6 cycles
 SCF Done:  E(RM062X) =  -276.340154216     A.U. after    5 cycles
 SCF Done:  E(RM062X) =  -276.340154273     A.U. after    5 cycles
 SCF Done:  E(RM062X) =  -276.340154286     A.U. after    5 cycles
 SCF Done:  E(RM062X) =  -276.340154288     A.U. after    4 cycles
 SCF Done:  E(RM062X) =  -276.340154289     A.U. after    3 cycles
 Optimization completed.
    -- Stationary point found.
 Normal termination of Gaussian 16 at Sun Sep 29 09:27:46 2019.

 ----------------------------------------------------------------------
 #P Geom=AllCheck Guess=TCheck SCRF=Check Test GenChk RM062X/CC-pVTZ Fr
 eq
 ----------------------------------------------------------------------

 Structure from the checkpoint file:  "/scratch/harms.n/gauss_scrdir/Gau-25867.chk"
 ------------------------------
 Gaussian input prepared by ASE
 ------------------------------
 Charge =  0 Multiplicity = 1

                         Standard orientation:
 ---------------------------------------------------------------------
 Center     Atomic      Atomic             Coordinates (Angstroms)
 Number     Number       Type             X           Y           Z
 ---------------------------------------------------------------------
      1          6           0       -0.843687   -0.158198   -0.257875
      2          6           0        0.223279   -0.929511    0.510109
      3          6           0        1.545210   -1.074173   -0.243019
      4          6           0       -2.193544   -0.148567    0.449293
      5          6           0        2.184136    0.248598   -0.667126
      6          6           0       -3.249827    0.641302   -0.312564
      7          6           0        2.432545    1.198241    0.499253
      8          1           0       -2.068910    0.271722    1.450880
      9          1           0       -2.532002   -1.178354    0.589703
     10          1           0       -0.959968   -0.593979   -1.256132
     11          1           0       -0.518673    0.874996   -0.412769
     12          1           0       -0.159506   -1.926734    0.742582
     13          1           0        0.394749   -0.441275    1.473512
     14          1           0        1.380407   -1.689384   -1.131579
     15          1           0        2.252798   -1.621174    0.385956
     16          1           0        3.130621    0.033489   -1.166584
     17          1           0        1.554405    0.740773   -1.411554
     18          1           0       -2.942447    1.680816   -0.436052
     19          1           0       -3.403276    0.222509   -1.308292
     20          1           0       -4.208882    0.635110    0.204421
     21          1           0        3.017185    0.708271    1.280308
     22          1           0        1.496634    1.532164    0.948857
     23          1           0        2.978206    2.084899    0.178327
 ---------------------------------------------------------------------

 SCF Done:  E(RM062X) =  -276.340154289     A.U. after    1 cycles

 The electronic state is 1-A.
 Alpha  occ. eigenvalues --  -10.52639 -10.52570 -10.52460 -10.52441 -10.52373
 Alpha  occ. eigenvalues --  -10.51956 -10.51947  -0.91319  -0.87681  -0.82294
 Alpha  occ. eigenvalues --   -0.76544  -0.70858  -0.66671  -0.63159  -0.55135
 Alpha  occ. eigenvalues --   -0.53055  -0.51428  -0.49206  -0.46864  -0.46489
 Alpha  occ. eigenvalues --   -0.45055  -0.43591  -0.41687  -0.40155  -0.39502
 Alpha  occ. eigenvalues --   -0.38499  -0.37318  -0.36861  -0.36158
 Alpha virt. eigenvalues --    0.06440   0.08065   0.08861   0.09211   0.11061
 Alpha virt. eigenvalues --    0.12349   0.12831   0.14398   0.14709   0.15279
 Alpha virt. eigenvalues --    0.16003   0.16828   0.17758   0.18299   0.18523

 Mulliken charges:
               1
     1  C   -0.265203
     2  C   -0.288386
     3  C   -0.286947
     4  C   -0.232133
     5  C   -0.257766
     6  C   -0.352523
     7  C   -0.371953
     8  H    0.122244
     9  H    0.122992
    10  H    0.137917
    11  H    0.137033
    12  H    0.143319
    13  H    0.147605
    14  H    0.138419
    15  H    0.140830
    16  H    0.134246
    17  H    0.138715
    18  H    0.108988
    19  H    0.109149
    20  H    0.113872
    21  H    0.120905
    22  H    0.118732
    23  H    0.119944
 Sum of Mulliken charges =  -0.00000

 Dipole moment (field-independent basis, Debye):
    X=              0.0337    Y=             -0.0611    Z=             -0.0178  Tot=              0.0720
 Quadrupole moment (field-independent basis, Debye-Ang):
   XX=            -48.9581   YY=            -48.7281   ZZ=            -49.0565
   XY=              0.2122   XZ=             -0.1728   YZ=              0.2121

  Exact polarizability:  97.338  -0.385  80.536  -0.110  -0.298  77.496
 Approx polarizability:  97.852   0.130  96.935   0.033  -0.162  97.249

                      1                      2                      3
                      A                      A                      A
 Frequencies --     64.6717                76.9737               131.8088
 Red. masses --      2.7902                 1.6088                 2.4336
 Frc consts  --      0.0069                 0.0056                 0.0249
 IR Inten    --      0.0057                 0.0151                 0.0041

                      4                      5                      6
                      A                      A                      A
 Frequencies --    147.0576               200.3937               247.9719
 Red. masses --      1.9584                 1.4720                 1.1058
 Frc consts  --      0.0250                 0.0348                 0.0401
 IR Inten    --      0.0153                 0.0231                 0.0006

                      7                      8                      9
                      A                      A                      A
 Frequencies --    277.3480               294.0160               383.6880
 Red. masses --      2.4046                 1.3772                 2.2361
 Frc consts  --      0.1090                 0.0701                 0.1939
 IR Inten    --      0.0204                 0.0144                 0.1399

                     10                     11                     12
                      A                      A                      A
 Frequencies --    403.6883               505.4666               724.0470
 Red. masses --      2.5523                 2.2477                 1.1158
 Frc consts  --      0.2451                 0.3384                 0.3446
 IR Inten    --      0.0537                 0.3580                 6.1254

                     13                     14                     15
                      A                      A                      A
 Frequencies --    745.9759               800.3837               851.3748
 Red. masses --      1.1231                 1.3012                 1.9430
 Frc consts  --      0.3682                 0.4911                 0.8298
 IR Inten    --      2.0899                 1.1584                 0.5362

                     16                     17                     18
                      A                      A                      A
 Frequencies --    859.3925               920.0578               949.4069
 Red. masses --      1.4306                 1.5959                 1.3980
 Frc consts  --      0.6225                 0.7960                 0.7425
 IR Inten    --      0.5032                 2.3150                 0.8256

                     19                     20                     21
                      A                      A                      A
 Frequencies --    971.1179              1032.0172              1042.0464
 Red. masses --      1.7320                 1.9191                 1.3392
 Frc consts  --      0.9624                 1.2043                 0.8568
 IR Inten    --      1.0567                 1.0617                 0.3196

                     22                     23                     24
                      A                      A                      A
 Frequencies --   1073.1432              1094.0900              1119.1103
 Red. masses --      1.9296                 1.8755                 1.9681
 Frc consts  --      1.3093                 1.3227                 1.4523
 IR Inten    --      0.4787                 0.7618                 0.3409

                     25                     26                     27
                      A                      A                      A
 Frequencies --   1164.8433              1177.8841              1240.1719
 Red. masses --      2.0646                 2.1362                 1.4684
 Frc consts  --      1.6506                 1.7462                 1.3307
 IR Inten    --      0.4361                 1.2154                 0.2238

                     28                     29                     30
                      A                      A                      A
 Frequencies --   1262.1993              1297.9613              1303.8570
 Red. masses --      1.3639                 1.2734                 1.2464
 Frc consts  --      1.2802                 1.2640                 1.2484
 IR Inten    --      0.2631                 0.5385                 0.4180

                     31                     32                     33
                      A                      A                      A
 Frequencies --   1331.0728              1333.2798              1365.3339
 Red. masses --      1.1321                 1.0563                 1.4205
 Frc consts  --      1.1818                 1.1063                 1.5602
 IR Inten    --      3.1257                 0.2050                 0.9419

                     34                     35                     36
                      A                      A                      A
 Frequencies --   1385.7297              1390.9729              1410.7631
 Red. masses --      1.3728                 1.5210                 1.6453
 Frc consts  --      1.5532                 1.7339                 1.9294
 IR Inten    --      1.5561                 0.4083                 3.4252

                     37                     38                     39
                      A                      A                      A
 Frequencies --   1414.2661              1416.1239              1482.1035
 Red. masses --      1.2743                 1.3360                 1.0692
 Frc consts  --      1.5017                 1.5785                 1.3837
 IR Inten    --      3.3782                 6.4091                 0.7356

                     40                     41                     42
                      A                      A                      A
 Frequencies --   1489.9591              1495.7652              1498.0303
 Red. masses --      1.0694                 1.0850                 1.0504
 Frc consts  --      1.3987                 1.4303                 1.3888
 IR Inten    --      0.8270                 2.2042                 0.3798

                     43                     44                     45
                      A                      A                      A
 Frequencies --   1501.7452              1503.8116              1507.5418
 Red. masses --      1.0692                 1.0400                 1.0657
 Frc consts  --      1.4207                 1.3856                 1.4270
 IR Inten    --      6.6812                 6.7755                 9.3588

                     46                     47                     48
                      A                      A                      A
 Frequencies --   1512.1051              1519.2376              3030.4549
 Red. masses --      1.0770                 1.0815                 1.0607
 Frc consts  --      1.4509                 1.4707                 5.7391
 IR Inten    --      7.7437                 1.0937                 4.6308

                     49                     50                     51
                      A                      A                      A
 Frequencies --   3043.3751              3046.6295              3051.7862
 Red. masses --      1.0616                 1.0599                 1.0586
 Frc consts  --      5.7931                 5.7965                 5.8091
 IR Inten    --     21.1953                 6.3798                47.4701

                     52                     53                     54
                      A                      A                      A
 Frequencies --   3056.9330              3057.2764              3058.6939
 Red. masses --      1.0425                 1.0391                 1.0793
 Frc consts  --      5.7400                 5.7227                 5.9495
 IR Inten    --     13.9857                43.9806                 3.3490

                     55                     56                     57
                      A                      A                      A
 Frequencies --   3063.6895              3076.3022              3083.6307
 Red. masses --      1.0761                 1.0997                 1.1004
 Frc consts  --      5.9511                 6.1316                 6.1651
 IR Inten    --     14.8581                15.6390                12.9680

                     58                     59                     60
                      A                      A                      A
 Frequencies --   3094.7896              3096.2679              3124.0262
 Red. masses --      1.1024                 1.1037                 1.1024
 Frc consts  --      6.2211                 6.2343                 6.3390
 IR Inten    --     32.1244                65.9550                38.3290

                     61                     62                     63
                      A                      A                      A
 Frequencies --   3124.4664              3133.2980              3133.6268
 Red. masses --      1.1021                 1.1015                 1.1013
 Frc consts  --      6.3391                 6.3716                 6.3716
 IR Inten    --     53.8972                38.5301                25.4169

 - Thermochemistry -
 -------------------
 Temperature   298.150 Kelvin.  Pressure   1.00000 Atm.
 Atom     1 has atomic number  6 and mass  12.00000

 Molecular mass:   100.12520 amu.
 Principal axes and moments of inertia in atomic units:
                           1         2         3
     Eigenvalues --   370.461701691.077711826.57696
           X            0.99999   0.00053   0.00374
           Y           -0.00053   1.00000   0.00118
           Z           -0.00374  -0.00119   0.99999
 This molecule is an asymmetric top.
 Rotational symmetry number  1.
 Rotational temperatures (Kelvin)      0.23380     0.05122     0.04742
 Rotational constants (GHZ):           4.87160     1.06721     0.98805
 Zero-point vibrational energy     575375.4 (Joules/Mol)
                                  137.51802 (Kcal/Mol)
 Warning -- explicit consideration of  11 degrees of freedom as
           vibrations may cause significant error
 Vibrational temperatures:     93.05   110.75   189.64   211.58   288.32
          (Kelvin)            356.78   399.04   423.02   552.04   580.82
                              727.25  1041.74  1073.29  1151.57  1224.94
                             1236.47  1323.76  1365.98  1397.22  1484.84
                             1499.27  1544.01  1574.15  1610.15  1675.95
                             1694.71  1784.33  1816.02  1867.48  1875.96
                             1915.12  1918.29  1964.41  1993.76  2001.30
                             2029.77  2034.81  2037.49  2132.42  2143.72
                             2152.07  2155.33  2160.68  2163.65  2169.02
                             2175.58  2185.84  4360.15  4378.74  4383.42
                             4390.84  4398.24  4398.74  4400.78  4407.97
                             4426.11  4436.66  4452.71  4454.84  4494.78
                             4495.41  4508.12  4508.59

 Zero-point correction=                           0.219149 (Hartree/Particle)
 Thermal correction to Energy=                    0.228545
 Thermal correction to Enthalpy=                  0.229489
 Thermal correction to Gibbs Free Energy=         0.184873
 Sum of electronic and zero-point Energies=           -276.121005
 Sum of electronic and thermal Energies=              -276.111610
 Sum of electronic and thermal Enthalpies=            -276.110665
 Sum of electronic and thermal Free Energies=         -276.155281

                     E (Thermal)             CV                S
                      KCal/Mol        Cal/Mol-Kelvin    Cal/Mol-Kelvin
 Total                  143.414             33.764             93.901
 Electronic               0.000              0.000              0.000
 Translational            0.889              2.981             39.722
 Rotational               0.889              2.981             28.528
 Vibrational            141.636             27.802             25.652
 Vibration     1          0.597              1.971              4.309
 Vibration     2          0.599              1.965              3.967
 Vibration     3          0.612              1.922              2.919
 Vibration     4          0.617              1.906              2.710
 Vibration     5          0.638              1.839              2.129
 Vibration     6          0.662              1.766              1.745
 Vibration     7          0.678              1.715              1.550
 Vibration     8          0.689              1.685              1.451
 Vibration     9          0.753              1.505              1.025
 Vibration    10          0.769              1.462              0.949
 Vibration    11          0.861              1.238              0.645

 Optimization completed.
    -- Stationary point found.
 Normal termination of Gaussian 16 at Sun Sep 29 12:07:33 2019.
