 Gaussian 16, Revision A.03,
 Gaussian 16:  EM64L-G16RevA.03 25-Dec-2016

 ----------------------------------------------------------------------
 #p m062x/cc-pVTZ opt=(calcfc,maxcycles=900,Tight) freq IOP(7/33=1,2/16
 =3) scf=(maxcycle=900)
 ----------------------------------------------------------------------

 ------------------------------
 Gaussian input prepared by ASE
 ------------------------------
 Symbolic Z-matrix:
 Charge =  0 Multiplicity = 1

 SCF Done:  E(RM062X) =  -276.311381932     A.U. after   11 cycles
 SCF Done:  E(RM062X) =  -276.326036037     A.U. after   11 cycles
 SCF Done:  E(RM062X) =  -276.327154571     A.U. after   10 cycles
 SCF Done:  E(RM062X) =  -276.330864447     A.U. after   11 cycles
 SCF Done:  E(RM062X) =  -276.333404954     A.U. after   10 cycles
 SCF Done:  E(RM062X) =  -276.296435950     A.U. after   12 cycles
 SCF Done:  E(RM062X) =  -276.335660612     A.U. after   10 cycles
 SCF Done:  E(RM062X) =  -276.336764819     A.U. after    9 cycles
 SCF Done:  E(RM062X) =  -276.336590249     A.U. after   10 cycles
 SCF Done:  E(RM062X) =  -276.337147682     A.U. after   10 cycles
 SCF Done:  E(RM062X) =  -276.337338759     A.U. after    8 cycles
 SCF Done:  E(RM062X) =  -276.337342064     A.U. after    6 cycles
 SCF Done:  E(RM062X) =  -276.337345753     A.U. after    7 cycles
 SCF Done:  E(RM062X) =  -276.337346441     A.U. after    6 cycles
 SCF Done:  E(RM062X) =  -276.337346469     A.U. after    5 cycles
 SCF Done:  E(RM062X) =  -276.337346470     A.U. after    3 cycles
 SCF Done:  E(RM062X) =  -276.337346471     A.U. after    3 cycles
 SCF Done:  E(RM062X) =  -276.337346470     A.U. after    3 cycles
 SCF Done:  E(RM062X) =  -276.337346470     A.U. after    3 cycles
 Optimization completed.
    -- Stationary point found.
 Normal termination of Gaussian 16 at Sat Sep 28 11:55:41 2019.

 ----------------------------------------------------------------------
 #P Geom=AllCheck Guess=TCheck SCRF=Check Test GenChk RM062X/CC-pVTZ Fr
 eq
 ----------------------------------------------------------------------

 Structure from the checkpoint file:  "/scratch/harms.n/gauss_scrdir/Gau-35122.chk"
 ------------------------------
 Gaussian input prepared by ASE
 ------------------------------
 Charge =  0 Multiplicity = 1

                         Standard orientation:
 ---------------------------------------------------------------------
 Center     Atomic      Atomic             Coordinates (Angstroms)
 Number     Number       Type             X           Y           Z
 ---------------------------------------------------------------------
      1          6           0        1.577475   -0.985869   -0.417153
      2          6           0        0.237788   -1.014536    0.332443
      3          6           0       -0.869515   -0.205299   -0.337585
      4          6           0        2.571032    0.047024    0.114971
      5          6           0       -2.160142   -0.177733    0.471136
      6          6           0        2.061076    1.482985    0.078611
      7          6           0       -3.270962    0.600197   -0.222655
      8          1           0        3.495405   -0.021664   -0.462242
      9          1           0        2.831162   -0.214872    1.144139
     10          1           0        1.390344   -0.792724   -1.478196
     11          1           0        2.049314   -1.968359   -0.365577
     12          1           0        0.385741   -0.649611    1.354520
     13          1           0       -0.110124   -2.045339    0.430869
     14          1           0       -1.071240   -0.632227   -1.325151
     15          1           0       -0.532828    0.819224   -0.515318
     16          1           0       -2.488329   -1.203729    0.658192
     17          1           0       -1.958341    0.262055    1.451586
     18          1           0        1.763703    1.766591   -0.932676
     19          1           0        1.195503    1.613974    0.729120
     20          1           0        2.829891    2.180288    0.410418
     21          1           0       -3.506150    0.158430   -1.192087
     22          1           0       -2.969423    1.634268   -0.396158
     23          1           0       -4.185147    0.613079    0.369954
 ---------------------------------------------------------------------

 SCF Done:  E(RM062X) =  -276.337346471     A.U. after    1 cycles

 The electronic state is 1-A.
 Alpha  occ. eigenvalues --  -10.52678 -10.52584 -10.52475 -10.52439 -10.52339
 Alpha  occ. eigenvalues --  -10.51980 -10.51921  -0.91160  -0.87718  -0.82307
 Alpha  occ. eigenvalues --   -0.76721  -0.70416  -0.65930  -0.64442  -0.55157
 Alpha  occ. eigenvalues --   -0.52340  -0.51510  -0.49284  -0.47134  -0.45942
 Alpha  occ. eigenvalues --   -0.45754  -0.42581  -0.41658  -0.41087  -0.39123
 Alpha  occ. eigenvalues --   -0.38562  -0.37740  -0.36573  -0.35865
 Alpha virt. eigenvalues --    0.06712   0.07841   0.09061   0.09272   0.10872
 Alpha virt. eigenvalues --    0.12443   0.12927   0.13607   0.14470   0.15333
 Alpha virt. eigenvalues --    0.16132   0.16804   0.17224   0.17829   0.19048

 Mulliken charges:
               1
     1  C   -0.267293
     2  C   -0.285085
     3  C   -0.277261
     4  C   -0.227111
     5  C   -0.228340
     6  C   -0.390972
     7  C   -0.352478
     8  H    0.125210
     9  H    0.126057
    10  H    0.134726
    11  H    0.131793
    12  H    0.139606
    13  H    0.138451
    14  H    0.135751
    15  H    0.151716
    16  H    0.122765
    17  H    0.121501
    18  H    0.124300
    19  H    0.120963
    20  H    0.123498
    21  H    0.109062
    22  H    0.109425
    23  H    0.113715
 Sum of Mulliken charges =   0.00000

 Dipole moment (field-independent basis, Debye):
    X=              0.0916    Y=             -0.0883    Z=              0.0288  Tot=              0.1304
 Quadrupole moment (field-independent basis, Debye-Ang):
   XX=            -49.0300   YY=            -48.8212   ZZ=            -48.8090
   XY=              0.3423   XZ=             -0.1286   YZ=              0.3045

  Exact polarizability:  98.145  -1.101  81.724   0.101  -0.368  75.757
 Approx polarizability:  97.907   0.067  96.832   0.041  -0.203  97.390

                      1                      2                      3
                      A                      A                      A
 Frequencies --     67.1168                72.9893               126.5759
 Red. masses --      1.9983                 2.1454                 2.0332
 Frc consts  --      0.0053                 0.0067                 0.0192
 IR Inten    --      0.0052                 0.0051                 0.0142

                      4                      5                      6
                      A                      A                      A
 Frequencies --    149.0209               196.4426               242.1367
 Red. masses --      2.0207                 2.2539                 1.1266
 Frc consts  --      0.0264                 0.0512                 0.0389
 IR Inten    --      0.0401                 0.0104                 0.0011

                      7                      8                      9
                      A                      A                      A
 Frequencies --    287.3188               311.9468               361.2705
 Red. masses --      1.7705                 1.2191                 2.8615
 Frc consts  --      0.0861                 0.0699                 0.2200
 IR Inten    --      0.0518                 0.0200                 0.1245

                     10                     11                     12
                      A                      A                      A
 Frequencies --    408.2410               481.0056               729.5136
 Red. masses --      2.2968                 1.9645                 1.0911
 Frc consts  --      0.2255                 0.2678                 0.3421
 IR Inten    --      0.0515                 0.1669                 3.9310

                     13                     14                     15
                      A                      A                      A
 Frequencies --    763.1315               789.8680               838.1541
 Red. masses --      1.1945                 1.3007                 1.7249
 Frc consts  --      0.4098                 0.4781                 0.7139
 IR Inten    --      1.4056                 1.1485                 0.7903

                     16                     17                     18
                      A                      A                      A
 Frequencies --    878.9128               922.9406               941.3764
 Red. masses --      1.6169                 1.5568                 1.2862
 Frc consts  --      0.7359                 0.7813                 0.6716
 IR Inten    --      0.5486                 1.8856                 1.2807

                     19                     20                     21
                      A                      A                      A
 Frequencies --    974.2808              1037.6609              1064.0457
 Red. masses --      2.2578                 1.9223                 1.4151
 Frc consts  --      1.2627                 1.2195                 0.9440
 IR Inten    --      0.1660                 2.4752                 0.0852

                     22                     23                     24
                      A                      A                      A
 Frequencies --   1072.1567              1097.5972              1120.6260
 Red. masses --      1.9852                 1.9293                 1.9118
 Frc consts  --      1.3445                 1.3694                 1.4145
 IR Inten    --      1.2961                 1.5702                 0.2004

                     25                     26                     27
                      A                      A                      A
 Frequencies --   1157.8651              1184.4713              1244.2010
 Red. masses --      2.1546                 2.0206                 1.4095
 Frc consts  --      1.7019                 1.6703                 1.2856
 IR Inten    --      1.0092                 0.1626                 0.2062

                     28                     29                     30
                      A                      A                      A
 Frequencies --   1256.6321              1299.3987              1308.7376
 Red. masses --      1.3182                 1.2727                 1.2225
 Frc consts  --      1.2265                 1.2661                 1.2337
 IR Inten    --      0.7265                 0.8717                 0.4658

                     31                     32                     33
                      A                      A                      A
 Frequencies --   1326.0341              1334.6084              1368.1513
 Red. masses --      1.1455                 1.0599                 1.3457
 Frc consts  --      1.1867                 1.1123                 1.4841
 IR Inten    --      0.9315                 0.5006                 0.7500

                     34                     35                     36
                      A                      A                      A
 Frequencies --   1383.1616              1386.8966              1406.6531
 Red. masses --      1.3663                 1.4910                 1.6831
 Frc consts  --      1.5401                 1.6897                 1.9622
 IR Inten    --      1.7073                 0.6628                 1.2727

                     37                     38                     39
                      A                      A                      A
 Frequencies --   1413.6662              1417.3760              1488.4858
 Red. masses --      1.2703                 1.3282                 1.0671
 Frc consts  --      1.4957                 1.5721                 1.3930
 IR Inten    --      4.9684                 2.7696                 0.7479

                     40                     41                     42
                      A                      A                      A
 Frequencies --   1489.5876              1492.4967              1495.2181
 Red. masses --      1.0727                 1.0724                 1.0670
 Frc consts  --      1.4023                 1.4074                 1.4054
 IR Inten    --      1.2632                 0.9773                 1.4312

                     43                     44                     45
                      A                      A                      A
 Frequencies --   1503.7734              1504.7752              1508.8809
 Red. masses --      1.0399                 1.0770                 1.0647
 Frc consts  --      1.3855                 1.4369                 1.4283
 IR Inten    --      7.1460                 2.4225                 6.5582

                     46                     47                     48
                      A                      A                      A
 Frequencies --   1512.6536              1518.9650              3034.3778
 Red. masses --      1.0736                 1.0721                 1.0648
 Frc consts  --      1.4474                 1.4574                 5.7765
 IR Inten    --     14.8413                 4.8646                 2.5452

                     49                     50                     51
                      A                      A                      A
 Frequencies --   3039.1860              3043.4441              3048.8679
 Red. masses --      1.0653                 1.0631                 1.0607
 Frc consts  --      5.7972                 5.8018                 5.8094
 IR Inten    --      2.3323                10.4372                20.2481

                     52                     53                     54
                      A                      A                      A
 Frequencies --   3050.8865              3056.4500              3058.1769
 Red. masses --      1.0620                 1.0394                 1.0370
 Frc consts  --      5.8239                 5.7209                 5.7140
 IR Inten    --     55.2809                21.9668                37.4817

                     55                     56                     57
                      A                      A                      A
 Frequencies --   3068.8927              3076.4497              3086.6045
 Red. masses --      1.0917                 1.1019                 1.0984
 Frc consts  --      6.0579                 6.1445                 6.1654
 IR Inten    --     13.1973                 4.3467                22.6200

                     58                     59                     60
                      A                      A                      A
 Frequencies --   3093.5449              3100.3170              3125.2051
 Red. masses --      1.1004                 1.1005                 1.1027
 Frc consts  --      6.2046                 6.2321                 6.3454
 IR Inten    --     27.3231                66.8915                40.0861

                     61                     62                     63
                      A                      A                      A
 Frequencies --   3125.3537              3131.4890              3133.3307
 Red. masses --      1.1019                 1.1014                 1.1016
 Frc consts  --      6.3417                 6.3635                 6.3721
 IR Inten    --     46.4170                40.0955                25.4742

 - Thermochemistry -
 -------------------
 Temperature   298.150 Kelvin.  Pressure   1.00000 Atm.
 Atom     1 has atomic number  6 and mass  12.00000

 Molecular mass:   100.12520 amu.
 Principal axes and moments of inertia in atomic units:
                           1         2         3
     Eigenvalues --   368.524561664.948851875.72951
           X            1.00000   0.00030   0.00166
           Y           -0.00029   0.99999  -0.00486
           Z           -0.00166   0.00486   0.99999
 This molecule is an asymmetric top.
 Rotational symmetry number  1.
 Rotational temperatures (Kelvin)      0.23503     0.05202     0.04618
 Rotational constants (GHZ):           4.89721     1.08396     0.96215
 Zero-point vibrational energy     575461.2 (Joules/Mol)
                                  137.53852 (Kcal/Mol)
 Warning -- explicit consideration of  11 degrees of freedom as
           vibrations may cause significant error
 Vibrational temperatures:     96.57   105.02   182.11   214.41   282.64
          (Kelvin)            348.38   413.39   448.82   519.79   587.37
                              692.06  1049.61  1097.98  1136.44  1205.92
                             1264.56  1327.91  1354.43  1401.77  1492.96
                             1530.92  1542.59  1579.20  1612.33  1665.91
                             1704.19  1790.13  1808.01  1869.54  1882.98
                             1907.87  1920.20  1968.46  1990.06  1995.43
                             2023.86  2033.95  2039.29  2141.60  2143.18
                             2147.37  2151.29  2163.59  2165.04  2170.94
                             2176.37  2185.45  4365.79  4372.71  4378.84
                             4386.64  4389.55  4397.55  4400.03  4415.45
                             4426.32  4440.94  4450.92  4460.66  4496.47
                             4496.69  4505.51  4508.16

 Zero-point correction=                           0.219182 (Hartree/Particle)
 Thermal correction to Energy=                    0.228594
 Thermal correction to Enthalpy=                  0.229538
 Thermal correction to Gibbs Free Energy=         0.184864
 Sum of electronic and zero-point Energies=           -276.118165
 Sum of electronic and thermal Energies=              -276.108752
 Sum of electronic and thermal Enthalpies=            -276.107808
 Sum of electronic and thermal Free Energies=         -276.152482

                     E (Thermal)             CV                S
                      KCal/Mol        Cal/Mol-Kelvin    Cal/Mol-Kelvin
 Total                  143.445             33.765             94.024
 Electronic               0.000              0.000              0.000
 Translational            0.889              2.981             39.722
 Rotational               0.889              2.981             28.533
 Vibrational            141.668             27.803             25.769
 Vibration     1          0.598              1.970              4.236
 Vibration     2          0.599              1.967              4.071
 Vibration     3          0.611              1.927              2.997
 Vibration     4          0.618              1.904              2.685
 Vibration     5          0.636              1.845              2.166
 Vibration     6          0.658              1.776              1.787
 Vibration     7          0.684              1.697              1.490
 Vibration     8          0.700              1.651              1.352
 Vibration     9          0.735              1.552              1.117
 Vibration    10          0.773              1.452              0.933
 Vibration    11          0.837              1.292              0.707

 Optimization completed.
    -- Stationary point found.
 Normal termination of Gaussian 16 at Sat Sep 28 15:30:07 2019.
