 Gaussian 16, Revision A.03,
 Gaussian 16:  EM64L-G16RevA.03 25-Dec-2016

 ----------------------------------------------------------------------
 #p m062x/cc-pVTZ opt=(calcfc,maxcycles=900,Tight) freq IOP(7/33=1,2/16
 =3) scf=(maxcycle=900)
 ----------------------------------------------------------------------

 ------------------------------
 Gaussian input prepared by ASE
 ------------------------------
 Symbolic Z-matrix:
 Charge =  0 Multiplicity = 1

 SCF Done:  E(RM062X) =  -276.303798160     A.U. after   11 cycles
 SCF Done:  E(RM062X) =  -276.321308085     A.U. after   10 cycles
 SCF Done:  E(RM062X) =  -276.327872419     A.U. after   10 cycles
 SCF Done:  E(RM062X) =  -276.330351706     A.U. after   11 cycles
 SCF Done:  E(RM062X) =  -276.332006062     A.U. after   10 cycles
 SCF Done:  E(RM062X) =  -276.310521309     A.U. after   11 cycles
 SCF Done:  E(RM062X) =  -276.333865631     A.U. after    9 cycles
 SCF Done:  E(RM062X) =  -276.335143171     A.U. after    9 cycles
 SCF Done:  E(RM062X) =  -276.336466799     A.U. after   11 cycles
 SCF Done:  E(RM062X) =  -276.337388561     A.U. after   10 cycles
 SCF Done:  E(RM062X) =  -276.340121458     A.U. after    9 cycles
 SCF Done:  E(RM062X) =  -276.340142557     A.U. after    8 cycles
 SCF Done:  E(RM062X) =  -276.340153289     A.U. after    7 cycles
 SCF Done:  E(RM062X) =  -276.340154157     A.U. after    6 cycles
 SCF Done:  E(RM062X) =  -276.340154286     A.U. after    5 cycles
 SCF Done:  E(RM062X) =  -276.340154296     A.U. after    5 cycles
 SCF Done:  E(RM062X) =  -276.340154292     A.U. after    4 cycles
 SCF Done:  E(RM062X) =  -276.340154301     A.U. after    4 cycles
 SCF Done:  E(RM062X) =  -276.340154290     A.U. after    4 cycles
 Optimization completed.
    -- Stationary point found.
 Normal termination of Gaussian 16 at Sun Sep 29 17:17:21 2019.

 ----------------------------------------------------------------------
 #P Geom=AllCheck Guess=TCheck SCRF=Check Test GenChk RM062X/CC-pVTZ Fr
 eq
 ----------------------------------------------------------------------

 Structure from the checkpoint file:  "/scratch/harms.n/gauss_scrdir/Gau-4308.chk"
 ------------------------------
 Gaussian input prepared by ASE
 ------------------------------
 Charge =  0 Multiplicity = 1

                         Standard orientation:
 ---------------------------------------------------------------------
 Center     Atomic      Atomic             Coordinates (Angstroms)
 Number     Number       Type             X           Y           Z
 ---------------------------------------------------------------------
      1          6           0        1.545205   -1.074171   -0.243029
      2          6           0        0.223278   -0.929518    0.510105
      3          6           0       -0.843689   -0.158191   -0.257866
      4          6           0        2.184128    0.248603   -0.667126
      5          6           0       -2.193550   -0.148571    0.449293
      6          6           0        2.432560    1.198232    0.499258
      7          6           0       -3.249825    0.641308   -0.312563
      8          1           0        1.554385    0.740789   -1.411539
      9          1           0        3.130603    0.033499   -1.166604
     10          1           0        1.380402   -1.689377   -1.131591
     11          1           0        2.252796   -1.621175    0.385941
     12          1           0        0.394753   -0.441300    1.473516
     13          1           0       -0.159506   -1.926745    0.742562
     14          1           0       -0.959967   -0.593956   -1.256130
     15          1           0       -0.518673    0.875004   -0.412744
     16          1           0       -2.532008   -1.178360    0.589685
     17          1           0       -2.068927    0.271703    1.450887
     18          1           0        3.017217    0.708256    1.280296
     19          1           0        2.978213    2.084894    0.178330
     20          1           0        1.496659    1.532151    0.948885
     21          1           0       -3.403267    0.222526   -1.308296
     22          1           0       -2.942442    1.680823   -0.436038
     23          1           0       -4.208883    0.635112    0.204415
 ---------------------------------------------------------------------

 SCF Done:  E(RM062X) =  -276.340154290     A.U. after    1 cycles

 The electronic state is 1-A.
 Alpha  occ. eigenvalues --  -10.52639 -10.52570 -10.52460 -10.52441 -10.52373
 Alpha  occ. eigenvalues --  -10.51956 -10.51947  -0.91319  -0.87681  -0.82294
 Alpha  occ. eigenvalues --   -0.76544  -0.70858  -0.66671  -0.63159  -0.55135
 Alpha  occ. eigenvalues --   -0.53055  -0.51428  -0.49206  -0.46864  -0.46489
 Alpha  occ. eigenvalues --   -0.45055  -0.43591  -0.41687  -0.40155  -0.39502
 Alpha  occ. eigenvalues --   -0.38499  -0.37318  -0.36861  -0.36158
 Alpha virt. eigenvalues --    0.06440   0.08065   0.08861   0.09211   0.11061
 Alpha virt. eigenvalues --    0.12349   0.12831   0.14398   0.14709   0.15279
 Alpha virt. eigenvalues --    0.16003   0.16828   0.17758   0.18299   0.18523

 Mulliken charges:
               1
     1  C   -0.286946
     2  C   -0.288386
     3  C   -0.265201
     4  C   -0.257767
     5  C   -0.232134
     6  C   -0.371953
     7  C   -0.352523
     8  H    0.138715
     9  H    0.134246
    10  H    0.138419
    11  H    0.140830
    12  H    0.147605
    13  H    0.143318
    14  H    0.137916
    15  H    0.137033
    16  H    0.122992
    17  H    0.122244
    18  H    0.120905
    19  H    0.119944
    20  H    0.118732
    21  H    0.109149
    22  H    0.108988
    23  H    0.113872
 Sum of Mulliken charges =  -0.00000

 Dipole moment (field-independent basis, Debye):
    X=              0.0337    Y=             -0.0611    Z=             -0.0178  Tot=              0.0720
 Quadrupole moment (field-independent basis, Debye-Ang):
   XX=            -48.9581   YY=            -48.7281   ZZ=            -49.0565
   XY=              0.2122   XZ=             -0.1728   YZ=              0.2122

  Exact polarizability:  97.338  -0.385  80.536  -0.110  -0.298  77.496
 Approx polarizability:  97.852   0.130  96.935   0.033  -0.162  97.249

                      1                      2                      3
                      A                      A                      A
 Frequencies --     64.6722                76.9698               131.8066
 Red. masses --      2.7902                 1.6088                 2.4336
 Frc consts  --      0.0069                 0.0056                 0.0249
 IR Inten    --      0.0057                 0.0151                 0.0041

                      4                      5                      6
                      A                      A                      A
 Frequencies --    147.0551               200.3880               247.9698
 Red. masses --      1.9584                 1.4720                 1.1058
 Frc consts  --      0.0250                 0.0348                 0.0401
 IR Inten    --      0.0153                 0.0231                 0.0006

                      7                      8                      9
                      A                      A                      A
 Frequencies --    277.3459               294.0112               383.6875
 Red. masses --      2.4045                 1.3773                 2.2360
 Frc consts  --      0.1090                 0.0701                 0.1939
 IR Inten    --      0.0204                 0.0143                 0.1399

                     10                     11                     12
                      A                      A                      A
 Frequencies --    403.6881               505.4652               724.0454
 Red. masses --      2.5523                 2.2477                 1.1158
 Frc consts  --      0.2451                 0.3384                 0.3446
 IR Inten    --      0.0537                 0.3580                 6.1254

                     13                     14                     15
                      A                      A                      A
 Frequencies --    745.9754               800.3839               851.3748
 Red. masses --      1.1231                 1.3012                 1.9429
 Frc consts  --      0.3682                 0.4911                 0.8297
 IR Inten    --      2.0900                 1.1584                 0.5363

                     16                     17                     18
                      A                      A                      A
 Frequencies --    859.3928               920.0585               949.4074
 Red. masses --      1.4306                 1.5959                 1.3980
 Frc consts  --      0.6225                 0.7960                 0.7424
 IR Inten    --      0.5031                 2.3151                 0.8255

                     19                     20                     21
                      A                      A                      A
 Frequencies --    971.1189              1032.0169              1042.0463
 Red. masses --      1.7321                 1.9191                 1.3392
 Frc consts  --      0.9624                 1.2042                 0.8568
 IR Inten    --      1.0567                 1.0618                 0.3196

                     22                     23                     24
                      A                      A                      A
 Frequencies --   1073.1441              1094.0906              1119.1128
 Red. masses --      1.9297                 1.8755                 1.9681
 Frc consts  --      1.3093                 1.3227                 1.4523
 IR Inten    --      0.4787                 0.7617                 0.3409

                     25                     26                     27
                      A                      A                      A
 Frequencies --   1164.8437              1177.8848              1240.1720
 Red. masses --      2.0647                 2.1362                 1.4684
 Frc consts  --      1.6506                 1.7462                 1.3307
 IR Inten    --      0.4361                 1.2153                 0.2238

                     28                     29                     30
                      A                      A                      A
 Frequencies --   1262.1997              1297.9620              1303.8575
 Red. masses --      1.3639                 1.2734                 1.2464
 Frc consts  --      1.2802                 1.2640                 1.2484
 IR Inten    --      0.2631                 0.5385                 0.4179

                     31                     32                     33
                      A                      A                      A
 Frequencies --   1331.0730              1333.2807              1365.3341
 Red. masses --      1.1321                 1.0563                 1.4206
 Frc consts  --      1.1818                 1.1063                 1.5602
 IR Inten    --      3.1256                 0.2051                 0.9419

                     34                     35                     36
                      A                      A                      A
 Frequencies --   1385.7301              1390.9747              1410.7635
 Red. masses --      1.3728                 1.5210                 1.6453
 Frc consts  --      1.5532                 1.7339                 1.9293
 IR Inten    --      1.5560                 0.4084                 3.4253

                     37                     38                     39
                      A                      A                      A
 Frequencies --   1414.2665              1416.1246              1482.1042
 Red. masses --      1.2743                 1.3360                 1.0692
 Frc consts  --      1.5017                 1.5785                 1.3837
 IR Inten    --      3.3773                 6.4099                 0.7355

                     40                     41                     42
                      A                      A                      A
 Frequencies --   1489.9594              1495.7663              1498.0298
 Red. masses --      1.0694                 1.0850                 1.0504
 Frc consts  --      1.3987                 1.4303                 1.3888
 IR Inten    --      0.8270                 2.2036                 0.3799

                     43                     44                     45
                      A                      A                      A
 Frequencies --   1501.7453              1503.8109              1507.5415
 Red. masses --      1.0692                 1.0400                 1.0657
 Frc consts  --      1.4207                 1.3856                 1.4270
 IR Inten    --      6.6816                 6.7754                 9.3595

                     46                     47                     48
                      A                      A                      A
 Frequencies --   1512.1047              1519.2378              3030.4566
 Red. masses --      1.0770                 1.0815                 1.0607
 Frc consts  --      1.4509                 1.4707                 5.7391
 IR Inten    --      7.7432                 1.0939                 4.6307

                     49                     50                     51
                      A                      A                      A
 Frequencies --   3043.3755              3046.6311              3051.7878
 Red. masses --      1.0616                 1.0599                 1.0586
 Frc consts  --      5.7931                 5.7965                 5.8091
 IR Inten    --     21.1971                 6.3787                47.4751

                     52                     53                     54
                      A                      A                      A
 Frequencies --   3056.9355              3057.2789              3058.6960
 Red. masses --      1.0425                 1.0391                 1.0793
 Frc consts  --      5.7400                 5.7227                 5.9495
 IR Inten    --     13.9830                43.9736                 3.3519

                     55                     56                     57
                      A                      A                      A
 Frequencies --   3063.6915              3076.3034              3083.6326
 Red. masses --      1.0761                 1.0997                 1.1004
 Frc consts  --      5.9511                 6.1316                 6.1651
 IR Inten    --     14.8569                15.6416                12.9705

                     58                     59                     60
                      A                      A                      A
 Frequencies --   3094.7910              3096.2688              3124.0285
 Red. masses --      1.1024                 1.1037                 1.1024
 Frc consts  --      6.2211                 6.2344                 6.3390
 IR Inten    --     32.1114                65.9672                38.3271

                     61                     62                     63
                      A                      A                      A
 Frequencies --   3124.4684              3133.3005              3133.6307
 Red. masses --      1.1021                 1.1015                 1.1013
 Frc consts  --      6.3391                 6.3716                 6.3716
 IR Inten    --     53.9049                38.4876                25.4536

 - Thermochemistry -
 -------------------
 Temperature   298.150 Kelvin.  Pressure   1.00000 Atm.
 Atom     1 has atomic number  6 and mass  12.00000

 Molecular mass:   100.12520 amu.
 Principal axes and moments of inertia in atomic units:
                           1         2         3
     Eigenvalues --   370.461581691.079801826.57878
           X            0.99999   0.00053   0.00374
           Y           -0.00053   1.00000   0.00118
           Z           -0.00374  -0.00119   0.99999
 This molecule is an asymmetric top.
 Rotational symmetry number  1.
 Rotational temperatures (Kelvin)      0.23380     0.05122     0.04742
 Rotational constants (GHZ):           4.87160     1.06721     0.98804
 Zero-point vibrational energy     575375.5 (Joules/Mol)
                                  137.51804 (Kcal/Mol)
 Warning -- explicit consideration of  11 degrees of freedom as
           vibrations may cause significant error
 Vibrational temperatures:     93.05   110.74   189.64   211.58   288.31
          (Kelvin)            356.77   399.04   423.02   552.04   580.82
                              727.25  1041.74  1073.29  1151.57  1224.94
                             1236.47  1323.76  1365.99  1397.22  1484.84
                             1499.27  1544.01  1574.15  1610.15  1675.95
                             1694.71  1784.33  1816.02  1867.48  1875.96
                             1915.12  1918.29  1964.41  1993.76  2001.30
                             2029.77  2034.81  2037.49  2132.42  2143.72
                             2152.07  2155.33  2160.68  2163.65  2169.02
                             2175.58  2185.84  4360.15  4378.74  4383.42
                             4390.84  4398.25  4398.74  4400.78  4407.97
                             4426.11  4436.66  4452.71  4454.84  4494.78
                             4495.41  4508.12  4508.60

 Zero-point correction=                           0.219149 (Hartree/Particle)
 Thermal correction to Energy=                    0.228545
 Thermal correction to Enthalpy=                  0.229489
 Thermal correction to Gibbs Free Energy=         0.184873
 Sum of electronic and zero-point Energies=           -276.121005
 Sum of electronic and thermal Energies=              -276.111610
 Sum of electronic and thermal Enthalpies=            -276.110665
 Sum of electronic and thermal Free Energies=         -276.155281

                     E (Thermal)             CV                S
                      KCal/Mol        Cal/Mol-Kelvin    Cal/Mol-Kelvin
 Total                  143.414             33.764             93.902
 Electronic               0.000              0.000              0.000
 Translational            0.889              2.981             39.722
 Rotational               0.889              2.981             28.528
 Vibrational            141.637             27.802             25.652
 Vibration     1          0.597              1.971              4.309
 Vibration     2          0.599              1.965              3.967
 Vibration     3          0.612              1.922              2.920
 Vibration     4          0.617              1.906              2.710
 Vibration     5          0.638              1.839              2.130
 Vibration     6          0.662              1.766              1.745
 Vibration     7          0.678              1.715              1.550
 Vibration     8          0.689              1.685              1.451
 Vibration     9          0.753              1.505              1.025
 Vibration    10          0.769              1.462              0.949
 Vibration    11          0.861              1.238              0.645

 Optimization completed.
    -- Stationary point found.
 Normal termination of Gaussian 16 at Sun Sep 29 19:56:09 2019.
