 Gaussian 16, Revision A.03,
 Gaussian 16:  EM64L-G16RevA.03 25-Dec-2016

 ----------------------------------------------------------------------
 #p m062x/cc-pVTZ opt=(calcfc,maxcycles=900,Tight) freq IOP(7/33=1,2/16
 =3) scf=(maxcycle=900)
 ----------------------------------------------------------------------

 ------------------------------
 Gaussian input prepared by ASE
 ------------------------------
 Symbolic Z-matrix:
 Charge =  0 Multiplicity = 1

 SCF Done:  E(RM062X) =  -346.913664352     A.U. after   13 cycles
 SCF Done:  E(RM062X) =  -346.918742419     A.U. after   13 cycles
 SCF Done:  E(RM062X) =  -346.931686913     A.U. after   12 cycles
 SCF Done:  E(RM062X) =  -346.932685936     A.U. after   12 cycles
 SCF Done:  E(RM062X) =  -346.934726149     A.U. after   13 cycles
 SCF Done:  E(RM062X) =  -346.919047551     A.U. after   12 cycles
 SCF Done:  E(RM062X) =  -346.937232945     A.U. after   12 cycles
 SCF Done:  E(RM062X) =  -346.938564747     A.U. after   12 cycles
 SCF Done:  E(RM062X) =  -346.938665047     A.U. after   12 cycles
 SCF Done:  E(RM062X) =  -346.938961094     A.U. after   11 cycles
 SCF Done:  E(RM062X) =  -346.939184730     A.U. after    7 cycles
 SCF Done:  E(RM062X) =  -346.939184735     A.U. after    5 cycles
 SCF Done:  E(RM062X) =  -346.939184735     A.U. after    3 cycles
 SCF Done:  E(RM062X) =  -346.939184735     A.U. after    4 cycles
 SCF Done:  E(RM062X) =  -346.939184735     A.U. after    3 cycles
 SCF Done:  E(RM062X) =  -346.939184734     A.U. after    4 cycles
 SCF Done:  E(RM062X) =  -346.939184734     A.U. after    4 cycles
 SCF Done:  E(RM062X) =  -346.939184734     A.U. after    4 cycles
 SCF Done:  E(RM062X) =  -346.939184734     A.U. after    3 cycles
 Optimization completed.
    -- Stationary point found.
 Normal termination of Gaussian 16 at Thu Sep 26 07:48:40 2019.

 ----------------------------------------------------------------------
 #P Geom=AllCheck Guess=TCheck SCRF=Check Test GenChk RM062X/CC-pVTZ Fr
 eq
 ----------------------------------------------------------------------

 Structure from the checkpoint file:  "/scratch/harms.n/gauss_scrdir/Gau-40037.chk"
 ------------------------------
 Gaussian input prepared by ASE
 ------------------------------
 Charge =  0 Multiplicity = 1

                         Standard orientation:
 ---------------------------------------------------------------------
 Center     Atomic      Atomic             Coordinates (Angstroms)
 Number     Number       Type             X           Y           Z
 ---------------------------------------------------------------------
      1          8           0       -0.152882   -0.460833   -0.899130
      2          8           0        2.302962    0.623453   -0.132569
      3          6           0       -1.301736    0.257152   -0.427258
      4          6           0       -0.879332    1.513753    0.313157
      5          6           0       -2.216560   -0.626717    0.404596
      6          6           0        0.635907   -1.029678    0.058580
      7          6           0        1.821007   -0.537844    0.391805
      8          1           0       -1.814526    0.534151   -1.348547
      9          1           0       -0.343356    1.252135    1.226788
     10          1           0       -0.219567    2.114284   -0.310023
     11          1           0       -1.754363    2.104751    0.584767
     12          1           0       -1.757813   -0.870548    1.363825
     13          1           0       -2.440213   -1.552903   -0.124167
     14          1           0       -3.152994   -0.106705    0.604815
     15          1           0        0.292135   -1.951610    0.513066
     16          1           0        2.444713   -1.064158    1.102900
     17          1           0        3.189633    0.779645    0.194884
 ---------------------------------------------------------------------

 SCF Done:  E(RM062X) =  -346.939184734     A.U. after    1 cycles

 The electronic state is 1-A.
 Alpha  occ. eigenvalues --  -19.64897 -19.62359 -10.58600 -10.58563 -10.56816
 Alpha  occ. eigenvalues --  -10.52292 -10.51550  -1.18341  -1.15792  -0.88544
 Alpha  occ. eigenvalues --   -0.83481  -0.77989  -0.70271  -0.64902  -0.60425
 Alpha  occ. eigenvalues --   -0.56012  -0.54960  -0.53409  -0.48198  -0.47792
 Alpha  occ. eigenvalues --   -0.46895  -0.44497  -0.43905  -0.43209  -0.41167
 Alpha  occ. eigenvalues --   -0.38223  -0.33670  -0.27509
 Alpha virt. eigenvalues --    0.05364   0.07068   0.08626   0.09845   0.11898
 Alpha virt. eigenvalues --    0.12397   0.13329   0.15187   0.15796   0.16975
 Alpha virt. eigenvalues --    0.17908   0.18452   0.20744   0.23405   0.26288

 Mulliken charges:
               1
     1  O   -0.275002
     2  O   -0.306678
     3  C    0.053542
     4  C   -0.396925
     5  C   -0.397937
     6  C   -0.090005
     7  C    0.002019
     8  H    0.142619
     9  H    0.128250
    10  H    0.148045
    11  H    0.120438
    12  H    0.120531
    13  H    0.136250
    14  H    0.123744
    15  H    0.130929
    16  H    0.107454
    17  H    0.252727
 Sum of Mulliken charges =   0.00000

 Dipole moment (field-independent basis, Debye):
    X=              0.8132    Y=              0.0756    Z=              2.0413  Tot=              2.1986
 Quadrupole moment (field-independent basis, Debye-Ang):
   XX=            -32.8274   YY=            -43.3824   ZZ=            -45.8277
   XY=              0.1195   XZ=              4.0532   YZ=             -1.5120

  Exact polarizability:  83.630   3.114  65.101   4.289  -2.011  54.593
 Approx polarizability:  90.423   5.144  75.527   5.916  -1.728  70.528

                      1                      2                      3
                      A                      A                      A
 Frequencies --     44.9222                83.1848               206.8557
 Red. masses --      3.9298                 2.9919                 1.3421
 Frc consts  --      0.0047                 0.0122                 0.0338
 IR Inten    --      0.5197                 4.2198                92.2272

                      4                      5                      6
                      A                      A                      A
 Frequencies --    216.6349               242.9886               253.1460
 Red. masses --      1.4477                 1.9892                 2.1113
 Frc consts  --      0.0400                 0.0692                 0.0797
 IR Inten    --     15.1495                 0.5749                 2.3884

                      7                      8                      9
                      A                      A                      A
 Frequencies --    269.9500               361.3373               425.7272
 Red. masses --      1.1261                 2.1756                 3.3842
 Frc consts  --      0.0484                 0.1674                 0.3614
 IR Inten    --      1.1237                 0.4369                 7.1992

                     10                     11                     12
                      A                      A                      A
 Frequencies --    483.7836               622.5721               729.3346
 Red. masses --      2.4896                 2.3653                 3.7290
 Frc consts  --      0.3433                 0.5401                 1.1687
 IR Inten    --      1.8499                 2.6494                37.8800

                     13                     14                     15
                      A                      A                      A
 Frequencies --    803.2273               840.0301               925.7803
 Red. masses --      1.5919                 2.8873                 1.3081
 Frc consts  --      0.6051                 1.2004                 0.6605
 IR Inten    --     61.6517                 5.2605                 4.4555

                     16                     17                     18
                      A                      A                      A
 Frequencies --    930.1832               944.1164               963.8484
 Red. masses --      1.2142                 1.4101                 2.7378
 Frc consts  --      0.6190                 0.7406                 1.4985
 IR Inten    --      0.7734                 0.5935                15.5504

                     19                     20                     21
                      A                      A                      A
 Frequencies --   1056.3549              1137.3765              1159.9304
 Red. masses --      2.6478                 1.9864                 2.0742
 Frc consts  --      1.7408                 1.5140                 1.6442
 IR Inten    --     18.6829                43.4272                12.5112

                     22                     23                     24
                      A                      A                      A
 Frequencies --   1199.0705              1204.5841              1263.0705
 Red. masses --      2.9403                 2.0344                 1.1666
 Frc consts  --      2.4907                 1.7393                 1.0966
 IR Inten    --    218.6716                 9.1428                78.4838

                     25                     26                     27
                      A                      A                      A
 Frequencies --   1318.1547              1368.3833              1388.6836
 Red. masses --      1.4426                 1.2879                 1.1957
 Frc consts  --      1.4768                 1.4209                 1.3585
 IR Inten    --     98.8680                 0.9594                 4.3219

                     28                     29                     30
                      A                      A                      A
 Frequencies --   1403.9500              1416.1426              1444.4806
 Red. masses --      1.4234                 1.2733                 1.5055
 Frc consts  --      1.6530                 1.5045                 1.8508
 IR Inten    --     28.2977                23.6219                37.5582

                     31                     32                     33
                      A                      A                      A
 Frequencies --   1481.7165              1491.5453              1496.9661
 Red. masses --      1.0489                 1.0526                 1.0473
 Frc consts  --      1.3568                 1.3797                 1.3827
 IR Inten    --      1.3588                 0.7690                 7.9141

                     34                     35                     36
                      A                      A                      A
 Frequencies --   1513.7540              1795.6988              3062.2320
 Red. masses --      1.0685                 5.9474                 1.0350
 Frc consts  --      1.4426                11.2991                 5.7180
 IR Inten    --      7.9125                30.4514                12.2330

                     37                     38                     39
                      A                      A                      A
 Frequencies --   3065.2211              3091.0949              3132.2743
 Red. masses --      1.0362                 1.0862                 1.1019
 Frc consts  --      5.7358                 6.1148                 6.3696
 IR Inten    --      9.2111                14.7289                 2.8712

                     40                     41                     42
                      A                      A                      A
 Frequencies --   3140.2004              3144.0209              3154.0784
 Red. masses --      1.1010                 1.1025                 1.1026
 Frc consts  --      6.3967                 6.4209                 6.4624
 IR Inten    --     46.5315                21.5788                12.1731

                     43                     44                     45
                      A                      A                      A
 Frequencies --   3179.6347              3211.2942              3924.4508
 Red. masses --      1.0851                 1.0993                 1.0670
 Frc consts  --      6.4636                 6.6792                 9.6817
 IR Inten    --      7.4455                20.5468               119.8734

 - Thermochemistry -
 -------------------
 Temperature   298.150 Kelvin.  Pressure   1.00000 Atm.
 Atom     1 has atomic number  8 and mass  15.99491

 Molecular mass:   102.06808 amu.
 Principal axes and moments of inertia in atomic units:
                           1         2         3
     Eigenvalues --   379.594331028.558391209.50255
           X            0.99999  -0.00346   0.00149
           Y            0.00350   0.99947  -0.03221
           Z           -0.00138   0.03222   0.99948
 This molecule is an asymmetric top.
 Rotational symmetry number  1.
 Rotational temperatures (Kelvin)      0.22817     0.08421     0.07161
 Rotational constants (GHZ):           4.75439     1.75463     1.49214
 Zero-point vibrational energy     386345.9 (Joules/Mol)
                                   92.33888 (Kcal/Mol)
 Warning -- explicit consideration of  10 degrees of freedom as
           vibrations may cause significant error
 Vibrational temperatures:     64.63   119.68   297.62   311.69   349.61
          (Kelvin)            364.22   388.40   519.88   612.53   696.06
                              895.74  1049.35  1155.66  1208.62  1331.99
                             1338.33  1358.37  1386.76  1519.86  1636.43
                             1668.88  1725.19  1733.13  1817.28  1896.53
                             1968.80  1998.01  2019.97  2037.51  2078.29
                             2131.86  2146.00  2153.80  2177.95  2583.61
                             4405.87  4410.17  4447.40  4506.64  4518.05
                             4523.54  4538.02  4574.79  4620.34  5646.41

 Zero-point correction=                           0.147151 (Hartree/Particle)
 Thermal correction to Energy=                    0.155755
 Thermal correction to Enthalpy=                  0.156699
 Thermal correction to Gibbs Free Energy=         0.113889
 Sum of electronic and zero-point Energies=           -346.792033
 Sum of electronic and thermal Energies=              -346.783430
 Sum of electronic and thermal Enthalpies=            -346.782485
 Sum of electronic and thermal Free Energies=         -346.825296

                     E (Thermal)             CV                S
                      KCal/Mol        Cal/Mol-Kelvin    Cal/Mol-Kelvin
 Total                   97.738             30.207             90.102
 Electronic               0.000              0.000              0.000
 Translational            0.889              2.981             39.779
 Rotational               0.889              2.981             27.648
 Vibrational             95.960             24.246             22.675
 Vibration     1          0.595              1.979              5.029
 Vibration     2          0.600              1.961              3.814
 Vibration     3          0.641              1.830              2.071
 Vibration     4          0.645              1.816              1.987
 Vibration     5          0.659              1.774              1.781
 Vibration     6          0.664              1.757              1.709
 Vibration     7          0.674              1.729              1.597
 Vibration     8          0.736              1.552              1.116
 Vibration     9          0.788              1.414              0.873
 Vibration    10          0.840              1.286              0.700

 Optimization completed.
    -- Stationary point found.
 Normal termination of Gaussian 16 at Thu Sep 26 09:39:57 2019.
