 Gaussian 16, Revision A.03,
 Gaussian 16:  EM64L-G16RevA.03 25-Dec-2016

 ----------------------------------------------------------------------
 #p m062x/cc-pVTZ opt=(calcfc,maxcycles=900,Tight) freq IOP(7/33=1,2/16
 =3) scf=(maxcycle=900)
 ----------------------------------------------------------------------

 ------------------------------
 Gaussian input prepared by ASE
 ------------------------------
 Symbolic Z-matrix:
 Charge =  0 Multiplicity = 1

 SCF Done:  E(RM062X) =  -346.910237376     A.U. after   13 cycles
 SCF Done:  E(RM062X) =  -346.913525597     A.U. after   14 cycles
 SCF Done:  E(RM062X) =  -346.914984652     A.U. after   12 cycles
 SCF Done:  E(RM062X) =  -346.926394927     A.U. after   12 cycles
 SCF Done:  E(RM062X) =  -346.924774032     A.U. after   12 cycles
 SCF Done:  E(RM062X) =  -346.926604207     A.U. after   13 cycles
 SCF Done:  E(RM062X) =  -346.928445408     A.U. after   12 cycles
 SCF Done:  E(RM062X) =  -346.923227061     A.U. after   14 cycles
 SCF Done:  E(RM062X) =  -346.928447784     A.U. after   12 cycles
 SCF Done:  E(RM062X) =  -346.866965743     A.U. after   13 cycles
 SCF Done:  E(RM062X) =  -346.938248863     A.U. after   10 cycles
 SCF Done:  E(RM062X) =  -346.938251755     A.U. after    8 cycles
 SCF Done:  E(RM062X) =  -346.938252107     A.U. after    7 cycles
 SCF Done:  E(RM062X) =  -346.938252166     A.U. after    7 cycles
 SCF Done:  E(RM062X) =  -346.938252168     A.U. after    7 cycles
 SCF Done:  E(RM062X) =  -346.938252164     A.U. after    7 cycles
 SCF Done:  E(RM062X) =  -346.938252163     A.U. after    5 cycles
 SCF Done:  E(RM062X) =  -346.938252164     A.U. after    4 cycles
 SCF Done:  E(RM062X) =  -346.938252164     A.U. after    3 cycles
 Optimization completed.
    -- Stationary point found.
 Normal termination of Gaussian 16 at Sun Sep 29 17:31:05 2019.

 ----------------------------------------------------------------------
 #P Geom=AllCheck Guess=TCheck SCRF=Check Test GenChk RM062X/CC-pVTZ Fr
 eq
 ----------------------------------------------------------------------

 Structure from the checkpoint file:  "/scratch/harms.n/gauss_scrdir/Gau-37540.chk"
 ------------------------------
 Gaussian input prepared by ASE
 ------------------------------
 Charge =  0 Multiplicity = 1

                         Standard orientation:
 ---------------------------------------------------------------------
 Center     Atomic      Atomic             Coordinates (Angstroms)
 Number     Number       Type             X           Y           Z
 ---------------------------------------------------------------------
      1          8           0        0.279542   -0.189658   -0.953804
      2          8           0       -3.007815   -0.161298    0.495702
      3          6           0        1.552476    0.104126   -0.367180
      4          6           0        2.086978   -1.064902    0.446199
      5          6           0        1.501391    1.392681    0.434929
      6          6           0       -0.748056   -0.404143   -0.079591
      7          6           0       -1.923822    0.171768   -0.272093
      8          1           0        2.194385    0.246699   -1.236643
      9          1           0        2.013553   -1.989825   -0.124343
     10          1           0        3.134057   -0.891022    0.693172
     11          1           0        1.544072   -1.184784    1.384036
     12          1           0        0.865452    1.273777    1.313016
     13          1           0        1.100096    2.202931   -0.172645
     14          1           0        2.501548    1.667098    0.769924
     15          1           0       -0.597292   -1.115835    0.724949
     16          1           0       -2.072159    0.875599   -1.082398
     17          1           0       -3.671330    0.525832    0.422160
 ---------------------------------------------------------------------

 SCF Done:  E(RM062X) =  -346.938252164     A.U. after    1 cycles

 The electronic state is 1-A.
 Alpha  occ. eigenvalues --  -19.64323 -19.63236 -10.59171 -10.57967 -10.56945
 Alpha  occ. eigenvalues --  -10.52738 -10.52503  -1.17619  -1.16670  -0.89223
 Alpha  occ. eigenvalues --   -0.83236  -0.78652  -0.70500  -0.64039  -0.61377
 Alpha  occ. eigenvalues --   -0.56897  -0.54598  -0.53176  -0.49466  -0.47968
 Alpha  occ. eigenvalues --   -0.47310  -0.45345  -0.43809  -0.42615  -0.41589
 Alpha  occ. eigenvalues --   -0.38947  -0.35787  -0.26502
 Alpha virt. eigenvalues --    0.06109   0.06754   0.07907   0.09708   0.11223
 Alpha virt. eigenvalues --    0.12446   0.13475   0.14742   0.16572   0.16942
 Alpha virt. eigenvalues --    0.17774   0.18140   0.19984   0.23722   0.24222

 Mulliken charges:
               1
     1  O   -0.271609
     2  O   -0.327572
     3  C    0.023883
     4  C   -0.385580
     5  C   -0.378057
     6  C   -0.051112
     7  C   -0.029292
     8  H    0.145992
     9  H    0.140536
    10  H    0.124564
    11  H    0.117121
    12  H    0.129988
    13  H    0.130455
    14  H    0.121547
    15  H    0.142483
    16  H    0.114207
    17  H    0.252446
 Sum of Mulliken charges =  -0.00000

 Dipole moment (field-independent basis, Debye):
    X=              0.2791    Y=              1.5379    Z=              0.5071  Tot=              1.6432
 Quadrupole moment (field-independent basis, Debye-Ang):
   XX=            -35.6605   YY=            -43.2722   ZZ=            -45.9230
   XY=             -5.4849   XZ=              1.3028   YZ=             -1.0931

  Exact polarizability:  88.871  -5.403  61.783   0.453  -2.801  55.776
 Approx polarizability:  93.993  -6.406  71.856  -1.048  -3.326  70.411

                      1                      2                      3
                      A                      A                      A
 Frequencies --     38.6978                69.6891               156.6040
 Red. masses --      2.2546                 2.8896                 1.5146
 Frc consts  --      0.0020                 0.0083                 0.0219
 IR Inten    --      3.2079                 3.0594               102.3004

                      4                      5                      6
                      A                      A                      A
 Frequencies --    173.7352               229.4458               260.0891
 Red. masses --      2.0869                 1.0919                 1.0473
 Frc consts  --      0.0371                 0.0339                 0.0417
 IR Inten    --     26.7873                 2.2134                 0.0861

                      7                      8                      9
                      A                      A                      A
 Frequencies --    325.3092               329.6150               400.7588
 Red. masses --      2.8698                 2.7111                 2.5773
 Frc consts  --      0.1789                 0.1735                 0.2439
 IR Inten    --      6.0801                 5.0582                 0.3231

                     10                     11                     12
                      A                      A                      A
 Frequencies --    436.5141               546.8957               587.9389
 Red. masses --      3.6337                 3.8981                 2.9750
 Frc consts  --      0.4079                 0.6869                 0.6059
 IR Inten    --     14.2282                 5.2765                 3.3247

                     13                     14                     15
                      A                      A                      A
 Frequencies --    834.5721               867.2023               929.4027
 Red. masses --      2.8040                 2.0385                 1.1827
 Frc consts  --      1.1507                 0.9032                 0.6019
 IR Inten    --      3.1487                 9.5279                 3.2428

                     16                     17                     18
                      A                      A                      A
 Frequencies --    938.7699               945.1936               980.3742
 Red. masses --      1.1941                 1.2976                 2.5047
 Frc consts  --      0.6200                 0.6830                 1.4183
 IR Inten    --     39.4380                12.2239                16.3823

                     19                     20                     21
                      A                      A                      A
 Frequencies --   1111.1698              1158.6627              1173.4119
 Red. masses --      1.9630                 2.1077                 1.9672
 Frc consts  --      1.4280                 1.6671                 1.5959
 IR Inten    --     39.1756                17.3097                14.1650

                     22                     23                     24
                      A                      A                      A
 Frequencies --   1204.4569              1217.4119              1249.6615
 Red. masses --      1.9666                 3.9721                 1.6038
 Frc consts  --      1.6809                 3.4685                 1.4756
 IR Inten    --     21.8583               554.0210                18.6349

                     25                     26                     27
                      A                      A                      A
 Frequencies --   1334.3247              1363.9851              1369.9979
 Red. masses --      1.3063                 1.3152                 1.2931
 Frc consts  --      1.3703                 1.4417                 1.4299
 IR Inten    --     16.0178                12.0706                 1.0173

                     28                     29                     30
                      A                      A                      A
 Frequencies --   1404.1558              1410.3583              1420.9191
 Red. masses --      1.4093                 1.3062                 1.3053
 Frc consts  --      1.6371                 1.5308                 1.5527
 IR Inten    --     26.0565                10.2353                13.8736

                     31                     32                     33
                      A                      A                      A
 Frequencies --   1485.0472              1489.6589              1501.7913
 Red. masses --      1.0493                 1.0520                 1.0490
 Frc consts  --      1.3634                 1.3754                 1.3940
 IR Inten    --      0.7349                 1.4109                 8.3298

                     34                     35                     36
                      A                      A                      A
 Frequencies --   1513.4215              1801.0159              3063.6421
 Red. masses --      1.0619                 5.5684                 1.0348
 Frc consts  --      1.4331                10.6419                 5.7222
 IR Inten    --      4.4907                 1.3056                11.9292

                     37                     38                     39
                      A                      A                      A
 Frequencies --   3067.2549              3090.1606              3135.1300
 Red. masses --      1.0360                 1.0863                 1.1020
 Frc consts  --      5.7426                 6.1118                 6.3819
 IR Inten    --      7.2683                14.3243                 1.8277

                     40                     41                     42
                      A                      A                      A
 Frequencies --   3142.6050              3145.0927              3148.0573
 Red. masses --      1.1008                 1.1028                 1.1032
 Frc consts  --      6.4050                 6.4272                 6.4413
 IR Inten    --     43.3218                17.1080                16.7844

                     43                     44                     45
                      A                      A                      A
 Frequencies --   3184.0579              3195.6396              3920.3186
 Red. masses --      1.0882                 1.0952                 1.0668
 Frc consts  --      6.5002                 6.5897                 9.6603
 IR Inten    --     23.1538                 6.7159               115.7004

 - Thermochemistry -
 -------------------
 Temperature   298.150 Kelvin.  Pressure   1.00000 Atm.
 Atom     1 has atomic number  8 and mass  15.99491

 Molecular mass:   102.06808 amu.
 Principal axes and moments of inertia in atomic units:
                           1         2         3
     Eigenvalues --   328.427321380.192981467.59559
           X            0.99983  -0.01048   0.01499
           Y            0.01125   0.99859  -0.05195
           Z           -0.01443   0.05211   0.99854
 This molecule is an asymmetric top.
 Rotational symmetry number  1.
 Rotational temperatures (Kelvin)      0.26372     0.06275     0.05902
 Rotational constants (GHZ):           5.49510     1.30760     1.22973
 Zero-point vibrational energy     384911.7 (Joules/Mol)
                                   91.99611 (Kcal/Mol)
 Warning -- explicit consideration of  12 degrees of freedom as
           vibrations may cause significant error
 Vibrational temperatures:     55.68   100.27   225.32   249.97   330.12
          (Kelvin)            374.21   468.05   474.24   576.60   628.05
                              786.86   845.91  1200.76  1247.71  1337.20
                             1350.68  1359.92  1410.54  1598.73  1667.06
                             1688.28  1732.94  1751.58  1797.98  1919.80
                             1962.47  1971.12  2020.27  2029.19  2044.39
                             2136.65  2143.29  2160.74  2177.48  2591.26
                             4407.90  4413.10  4446.05  4510.75  4521.51
                             4525.09  4529.35  4581.15  4597.81  5640.46

 Zero-point correction=                           0.146605 (Hartree/Particle)
 Thermal correction to Energy=                    0.155518
 Thermal correction to Enthalpy=                  0.156462
 Thermal correction to Gibbs Free Energy=         0.112568
 Sum of electronic and zero-point Energies=           -346.791647
 Sum of electronic and thermal Energies=              -346.782734
 Sum of electronic and thermal Enthalpies=            -346.781790
 Sum of electronic and thermal Free Energies=         -346.825685

                     E (Thermal)             CV                S
                      KCal/Mol        Cal/Mol-Kelvin    Cal/Mol-Kelvin
 Total                   97.589             30.720             92.384
 Electronic               0.000              0.000              0.000
 Translational            0.889              2.981             39.779
 Rotational               0.889              2.981             27.989
 Vibrational             95.812             24.758             24.617
 Vibration     1          0.594              1.981              5.325
 Vibration     2          0.598              1.969              4.162
 Vibration     3          0.620              1.895              2.590
 Vibration     4          0.627              1.875              2.395
 Vibration     5          0.652              1.796              1.883
 Vibration     6          0.668              1.746              1.661
 Vibration     7          0.709              1.625              1.283
 Vibration     8          0.712              1.616              1.262
 Vibration     9          0.767              1.468              0.960
 Vibration    10          0.797              1.391              0.838
 Vibration    11          0.902              1.146              0.551
 Vibration    12          0.945              1.058              0.471

                           ! Non-Optimized Parameters !
 Normal termination of Gaussian 16 at Sun Sep 29 18:49:25 2019.
