 Gaussian 16, Revision A.03,
 Gaussian 16:  EM64L-G16RevA.03 25-Dec-2016

 ----------------------------------------------------------------------
 #p m062x/cc-pVTZ opt=(calcfc,maxcycles=900,Tight) freq IOP(7/33=1,2/16
 =3) scf=(maxcycle=900)
 ----------------------------------------------------------------------

 ------------------------------
 Gaussian input prepared by ASE
 ------------------------------
 Symbolic Z-matrix:
 Charge =  0 Multiplicity = 1

 SCF Done:  E(RM062X) =  -346.910292966     A.U. after   13 cycles
 SCF Done:  E(RM062X) =  -346.929417222     A.U. after   13 cycles
 SCF Done:  E(RM062X) =  -346.912250045     A.U. after   12 cycles
 SCF Done:  E(RM062X) =  -346.933984343     A.U. after   12 cycles
 SCF Done:  E(RM062X) =  -346.703171155     A.U. after   14 cycles
 SCF Done:  E(RM062X) =  -346.932500760     A.U. after   11 cycles
 SCF Done:  E(RM062X) =  -346.934222354     A.U. after    9 cycles
 SCF Done:  E(RM062X) =  -346.929827363     A.U. after   12 cycles
 SCF Done:  E(RM062X) =  -346.935562082     A.U. after   10 cycles
 SCF Done:  E(RM062X) =  -346.936414574     A.U. after   11 cycles
 SCF Done:  E(RM062X) =  -346.942397217     A.U. after    9 cycles
 SCF Done:  E(RM062X) =  -346.942401274     A.U. after    9 cycles
 SCF Done:  E(RM062X) =  -346.942403356     A.U. after    8 cycles
 SCF Done:  E(RM062X) =  -346.942403848     A.U. after    7 cycles
 SCF Done:  E(RM062X) =  -346.942403880     A.U. after    6 cycles
 SCF Done:  E(RM062X) =  -346.942403881     A.U. after    5 cycles
 SCF Done:  E(RM062X) =  -346.942403881     A.U. after    3 cycles
 SCF Done:  E(RM062X) =  -346.942403881     A.U. after    4 cycles
 SCF Done:  E(RM062X) =  -346.942403881     A.U. after    4 cycles
 Optimization completed.
    -- Stationary point found.
 Normal termination of Gaussian 16 at Thu Sep 26 10:13:40 2019.

 ----------------------------------------------------------------------
 #P Geom=AllCheck Guess=TCheck SCRF=Check Test GenChk RM062X/CC-pVTZ Fr
 eq
 ----------------------------------------------------------------------

 Structure from the checkpoint file:  "/scratch/harms.n/gauss_scrdir/Gau-24149.chk"
 ------------------------------
 Gaussian input prepared by ASE
 ------------------------------
 Charge =  0 Multiplicity = 1

                         Standard orientation:
 ---------------------------------------------------------------------
 Center     Atomic      Atomic             Coordinates (Angstroms)
 Number     Number       Type             X           Y           Z
 ---------------------------------------------------------------------
      1          8           0        0.325449   -1.073743    0.155808
      2          8           0       -1.805854    0.932207   -0.651728
      3          6           0        0.954577    0.158998   -0.219551
      4          6           0        2.375399   -0.210838   -0.589990
      5          6           0        0.900849    1.149413    0.929212
      6          6           0       -1.012406   -1.110091    0.346527
      7          6           0       -1.978250   -0.258485    0.015835
      8          1           0        0.437202    0.568128   -1.087189
      9          1           0        2.879688   -0.653408    0.269507
     10          1           0        2.382657   -0.932419   -1.404985
     11          1           0        2.927117    0.676064   -0.899797
     12          1           0        1.424990    0.740508    1.794098
     13          1           0       -0.128094    1.367468    1.207427
     14          1           0        1.382317    2.083315    0.638878
     15          1           0       -1.315407   -2.026762    0.832472
     16          1           0       -2.993104   -0.530142    0.271494
     17          1           0       -2.595146    1.465557   -0.546733
 ---------------------------------------------------------------------

 SCF Done:  E(RM062X) =  -346.942403881     A.U. after    1 cycles

 The electronic state is 1-A.
 Alpha  occ. eigenvalues --  -19.64819 -19.63793 -10.58399 -10.57993 -10.57818
 Alpha  occ. eigenvalues --  -10.51905 -10.51699  -1.18333  -1.16676  -0.89120
 Alpha  occ. eigenvalues --   -0.83470  -0.77832  -0.70826  -0.63704  -0.62981
 Alpha  occ. eigenvalues --   -0.56561  -0.53848  -0.52802  -0.49525  -0.47078
 Alpha  occ. eigenvalues --   -0.46223  -0.44809  -0.43150  -0.42955  -0.41368
 Alpha  occ. eigenvalues --   -0.38575  -0.36993  -0.26185
 Alpha virt. eigenvalues --    0.05003   0.08520   0.09022   0.10530   0.12011
 Alpha virt. eigenvalues --    0.12884   0.13769   0.14901   0.15798   0.17170
 Alpha virt. eigenvalues --    0.18030   0.18944   0.21377   0.24229   0.25378

 Mulliken charges:
               1
     1  O   -0.247036
     2  O   -0.330299
     3  C   -0.003933
     4  C   -0.344626
     5  C   -0.362700
     6  C   -0.061400
     7  C   -0.057307
     8  H    0.162779
     9  H    0.117277
    10  H    0.122813
    11  H    0.105855
    12  H    0.123336
    13  H    0.139281
    14  H    0.120648
    15  H    0.147578
    16  H    0.114748
    17  H    0.252986
 Sum of Mulliken charges =  -0.00000

 Dipole moment (field-independent basis, Debye):
    X=             -1.5319    Y=              1.3353    Z=              0.2656  Tot=              2.0494
 Quadrupole moment (field-independent basis, Debye-Ang):
   XX=            -35.1824   YY=            -42.8927   ZZ=            -45.4516
   XY=             -1.2472   XZ=             -1.1709   YZ=             -1.0367

  Exact polarizability:  81.357  -2.930  65.515  -0.152  -2.555  55.488
 Approx polarizability:  86.747  -7.642  80.756   1.975  -5.961  68.534

                      1                      2                      3
                      A                      A                      A
 Frequencies --     85.5855               119.7165               136.6838
 Red. masses --      3.1393                 3.1583                 1.1253
 Frc consts  --      0.0135                 0.0267                 0.0124
 IR Inten    --      4.7419                 0.7292               121.7439

                      4                      5                      6
                      A                      A                      A
 Frequencies --    177.6855               205.1254               254.4972
 Red. masses --      2.2653                 1.1764                 1.2876
 Frc consts  --      0.0421                 0.0292                 0.0491
 IR Inten    --      1.6173                 0.4057                 0.1614

                      7                      8                      9
                      A                      A                      A
 Frequencies --    290.1037               360.0086               437.4024
 Red. masses --      3.4237                 2.2971                 3.2179
 Frc consts  --      0.1698                 0.1754                 0.3627
 IR Inten    --      1.1290                 1.4031                 4.3350

                     10                     11                     12
                      A                      A                      A
 Frequencies --    475.5424               552.7171               756.7708
 Red. masses --      2.3616                 4.0456                 1.3335
 Frc consts  --      0.3147                 0.7282                 0.4499
 IR Inten    --      2.7395                 6.6775                47.5410

                     13                     14                     15
                      A                      A                      A
 Frequencies --    807.0429               838.2601               923.3144
 Red. masses --      3.3474                 3.3142                 1.2338
 Frc consts  --      1.2846                 1.3721                 0.6197
 IR Inten    --      5.3322                39.9235                 1.3641

                     16                     17                     18
                      A                      A                      A
 Frequencies --    930.2363               938.8130               958.4334
 Red. masses --      2.2431                 1.1914                 1.4996
 Frc consts  --      1.1436                 0.6187                 0.8116
 IR Inten    --      1.6439                 0.8170                 2.0830

                     19                     20                     21
                      A                      A                      A
 Frequencies --   1036.6584              1151.6887              1175.2549
 Red. masses --      3.0997                 1.8645                 1.9577
 Frc consts  --      1.9626                 1.4571                 1.5932
 IR Inten    --     39.6093                28.0713                13.9296

                     22                     23                     24
                      A                      A                      A
 Frequencies --   1190.2908              1211.8641              1272.0883
 Red. masses --      2.5116                 2.1822                 1.2874
 Frc consts  --      2.0966                 1.8882                 1.2274
 IR Inten    --    135.8124                92.7641                95.9333

                     25                     26                     27
                      A                      A                      A
 Frequencies --   1368.6205              1375.3225              1388.4434
 Red. masses --      1.3582                 1.2791                 1.1893
 Frc consts  --      1.4989                 1.4255                 1.3508
 IR Inten    --     79.5487                37.9635                 2.9525

                     28                     29                     30
                      A                      A                      A
 Frequencies --   1410.1817              1420.1832              1447.5857
 Red. masses --      1.4676                 1.3201                 1.4445
 Frc consts  --      1.7195                 1.5688                 1.7834
 IR Inten    --     26.9090                20.5216                37.7607

                     31                     32                     33
                      A                      A                      A
 Frequencies --   1483.4159              1487.1948              1496.4957
 Red. masses --      1.0607                 1.0465                 1.0540
 Frc consts  --      1.3753                 1.3637                 1.3907
 IR Inten    --      1.3028                 0.7164                 3.8618

                     34                     35                     36
                      A                      A                      A
 Frequencies --   1512.4555              1800.4176              3065.3499
 Red. masses --      1.0564                 6.6441                 1.0362
 Frc consts  --      1.4238                12.6891                 5.7367
 IR Inten    --      6.8706                73.4505                11.8748

                     37                     38                     39
                      A                      A                      A
 Frequencies --   3068.5857              3098.7292              3135.6425
 Red. masses --      1.0368                 1.0844                 1.1024
 Frc consts  --      5.7518                 6.1346                 6.3861
 IR Inten    --     17.2306                 3.9465                 3.1769

                     40                     41                     42
                      A                      A                      A
 Frequencies --   3146.2141              3152.3691              3161.3717
 Red. masses --      1.1010                 1.1028                 1.1002
 Frc consts  --      6.4213                 6.4570                 6.4783
 IR Inten    --     36.9316                17.2872                13.4760

                     43                     44                     45
                      A                      A                      A
 Frequencies --   3204.8131              3229.5323              3914.8203
 Red. masses --      1.0863                 1.0964                 1.0669
 Frc consts  --      6.5737                 6.7376                 9.6339
 IR Inten    --      1.9386                18.1585               100.8624

 - Thermochemistry -
 -------------------
 Temperature   298.150 Kelvin.  Pressure   1.00000 Atm.
 Atom     1 has atomic number  8 and mass  15.99491

 Molecular mass:   102.06808 amu.
 Principal axes and moments of inertia in atomic units:
                           1         2         3
     Eigenvalues --   406.97956 999.012401163.80469
           X            0.99980   0.01518  -0.01287
           Y           -0.01473   0.99931   0.03395
           Z            0.01337  -0.03375   0.99934
 This molecule is an asymmetric top.
 Rotational symmetry number  1.
 Rotational temperatures (Kelvin)      0.21282     0.08670     0.07442
 Rotational constants (GHZ):           4.43448     1.80653     1.55073
 Zero-point vibrational energy     386714.0 (Joules/Mol)
                                   92.42686 (Kcal/Mol)
 Warning -- explicit consideration of  11 degrees of freedom as
           vibrations may cause significant error
 Vibrational temperatures:    123.14   172.25   196.66   255.65   295.13
          (Kelvin)            366.16   417.39   517.97   629.32   684.20
                              795.24  1088.82  1161.15  1206.07  1328.44
                             1338.40  1350.74  1378.97  1491.52  1657.02
                             1690.93  1712.56  1743.60  1830.25  1969.14
                             1978.78  1997.66  2028.94  2043.33  2082.75
                             2134.30  2139.74  2153.12  2176.09  2590.40
                             4410.35  4415.01  4458.38  4511.49  4526.70
                             4535.56  4548.51  4611.01  4646.58  5632.55

 Zero-point correction=                           0.147292 (Hartree/Particle)
 Thermal correction to Energy=                    0.155976
 Thermal correction to Enthalpy=                  0.156920
 Thermal correction to Gibbs Free Energy=         0.114382
 Sum of electronic and zero-point Energies=           -346.795112
 Sum of electronic and thermal Energies=              -346.786428
 Sum of electronic and thermal Enthalpies=            -346.785484
 Sum of electronic and thermal Free Energies=         -346.828022

                     E (Thermal)             CV                S
                      KCal/Mol        Cal/Mol-Kelvin    Cal/Mol-Kelvin
 Total                   97.876             30.393             89.528
 Electronic               0.000              0.000              0.000
 Translational            0.889              2.981             39.779
 Rotational               0.889              2.981             27.650
 Vibrational             96.099             24.432             22.098
 Vibration     1          0.601              1.959              3.759
 Vibration     2          0.609              1.933              3.105
 Vibration     3          0.614              1.917              2.850
 Vibration     4          0.628              1.870              2.353
 Vibration     5          0.640              1.833              2.087
 Vibration     6          0.665              1.755              1.699
 Vibration     7          0.686              1.692              1.473
 Vibration     8          0.735              1.555              1.122
 Vibration     9          0.798              1.389              0.835
 Vibration    10          0.832              1.304              0.722
 Vibration    11          0.908              1.134              0.539

 Optimization completed.
    -- Stationary point found.
 Normal termination of Gaussian 16 at Thu Sep 26 11:38:52 2019.
