 Gaussian 16, Revision A.03,
 Gaussian 16:  EM64L-G16RevA.03 25-Dec-2016

 ----------------------------------------------------------------------
 #p m062x/cc-pVTZ opt=(calcfc,maxcycles=900,Tight) freq IOP(7/33=1,2/16
 =3) scf=(maxcycle=900)
 ----------------------------------------------------------------------

 ------------------------------
 Gaussian input prepared by ASE
 ------------------------------
 Symbolic Z-matrix:
 Charge =  0 Multiplicity = 1

 SCF Done:  E(RM062X) =  -346.920143254     A.U. after   12 cycles
 SCF Done:  E(RM062X) =  -346.933509312     A.U. after   12 cycles
 SCF Done:  E(RM062X) =  -346.936927100     A.U. after   13 cycles
 SCF Done:  E(RM062X) =  -346.939714676     A.U. after   12 cycles
 SCF Done:  E(RM062X) =  -346.940783787     A.U. after   12 cycles
 SCF Done:  E(RM062X) =  -346.941345164     A.U. after   10 cycles
 SCF Done:  E(RM062X) =  -346.941324370     A.U. after   12 cycles
 SCF Done:  E(RM062X) =  -346.940985444     A.U. after   12 cycles
 SCF Done:  E(RM062X) =  -346.941416812     A.U. after   10 cycles
 SCF Done:  E(RM062X) =  -346.941426315     A.U. after    9 cycles
 SCF Done:  E(RM062X) =  -346.941427594     A.U. after    9 cycles
 SCF Done:  E(RM062X) =  -346.941428003     A.U. after    7 cycles
 SCF Done:  E(RM062X) =  -346.941428083     A.U. after    5 cycles
 SCF Done:  E(RM062X) =  -346.941428121     A.U. after    6 cycles
 SCF Done:  E(RM062X) =  -346.941428125     A.U. after    4 cycles
 SCF Done:  E(RM062X) =  -346.941428112     A.U. after    5 cycles
 SCF Done:  E(RM062X) =  -346.941428124     A.U. after    5 cycles
 SCF Done:  E(RM062X) =  -346.941428122     A.U. after    4 cycles
 SCF Done:  E(RM062X) =  -346.941428125     A.U. after    4 cycles
 Optimization completed.
    -- Stationary point found.
 Normal termination of Gaussian 16 at Thu Sep 26 03:47:29 2019.

 ----------------------------------------------------------------------
 #P Geom=AllCheck Guess=TCheck SCRF=Check Test GenChk RM062X/CC-pVTZ Fr
 eq
 ----------------------------------------------------------------------

 Structure from the checkpoint file:  "/scratch/harms.n/gauss_scrdir/Gau-1230.chk"
 ------------------------------
 Gaussian input prepared by ASE
 ------------------------------
 Charge =  0 Multiplicity = 1

                         Standard orientation:
 ---------------------------------------------------------------------
 Center     Atomic      Atomic             Coordinates (Angstroms)
 Number     Number       Type             X           Y           Z
 ---------------------------------------------------------------------
      1          8           0       -0.088300   -0.546442    0.183547
      2          8           0        2.498477   -0.350809   -0.846453
      3          6           0       -1.370814    0.065248    0.309563
      4          6           0       -2.378715   -0.945908   -0.192054
      5          6           0       -1.416087    1.367535   -0.470470
      6          6           0        0.913781    0.094627    0.840071
      7          6           0        2.149903    0.166300    0.367514
      8          1           0       -1.549696    0.268586    1.373388
      9          1           0       -2.180001   -1.171439   -1.239865
     10          1           0       -2.308935   -1.869711    0.379284
     11          1           0       -3.390209   -0.550687   -0.105309
     12          1           0       -1.228807    1.167513   -1.525897
     13          1           0       -0.655461    2.060944   -0.112491
     14          1           0       -2.392543    1.841040   -0.369105
     15          1           0        0.677847    0.521994    1.808918
     16          1           0        2.924884    0.628696    0.963413
     17          1           0        3.433091   -0.205738   -0.996831
 ---------------------------------------------------------------------

 SCF Done:  E(RM062X) =  -346.941428125     A.U. after    1 cycles

 The electronic state is 1-A.
 Alpha  occ. eigenvalues --  -19.64156 -19.63265 -10.59039 -10.57932 -10.57059
 Alpha  occ. eigenvalues --  -10.52158 -10.52148  -1.18122  -1.16350  -0.89294
 Alpha  occ. eigenvalues --   -0.83075  -0.78234  -0.68644  -0.66273  -0.61659
 Alpha  occ. eigenvalues --   -0.56619  -0.54243  -0.52589  -0.50282  -0.46562
 Alpha  occ. eigenvalues --   -0.45749  -0.45020  -0.43094  -0.42781  -0.41844
 Alpha  occ. eigenvalues --   -0.38989  -0.36567  -0.26058
 Alpha virt. eigenvalues --    0.05736   0.07899   0.08489   0.10043   0.11603
 Alpha virt. eigenvalues --    0.12166   0.12999   0.14827   0.16414   0.17235
 Alpha virt. eigenvalues --    0.18015   0.18746   0.21254   0.23613   0.25901

 Mulliken charges:
               1
     1  O   -0.245598
     2  O   -0.309206
     3  C    0.006435
     4  C   -0.340863
     5  C   -0.346215
     6  C   -0.074133
     7  C   -0.014183
     8  H    0.122392
     9  H    0.125228
    10  H    0.123869
    11  H    0.104458
    12  H    0.130557
    13  H    0.123417
    14  H    0.117810
    15  H    0.127286
    16  H    0.099487
    17  H    0.249260
 Sum of Mulliken charges =  -0.00000

 Dipole moment (field-independent basis, Debye):
    X=              0.7036    Y=              1.5187    Z=              0.8667  Tot=              1.8848
 Quadrupole moment (field-independent basis, Debye-Ang):
   XX=            -31.1060   YY=            -45.9196   ZZ=            -43.1234
   XY=              1.7294   XZ=             -0.6404   YZ=              0.6096

  Exact polarizability:  89.921   1.938  58.047  -2.963   1.699  60.927
 Approx polarizability:  93.435   1.213  68.254  -6.400   3.105  75.292

                      1                      2                      3
                      A                      A                      A
 Frequencies --     31.2378                87.1025               140.3220
 Red. masses --      3.9047                 3.2349                 1.1639
 Frc consts  --      0.0022                 0.0145                 0.0135
 IR Inten    --      1.3734                 6.0988               106.4581

                      4                      5                      6
                      A                      A                      A
 Frequencies --    170.6028               208.6208               246.5836
 Red. masses --      3.2204                 1.0398                 1.1765
 Frc consts  --      0.0552                 0.0267                 0.0421
 IR Inten    --      0.5909                 0.0628                 0.1754

                      7                      8                      9
                      A                      A                      A
 Frequencies --    299.5122               359.0341               427.4744
 Red. masses --      3.2524                 2.3122                 2.9279
 Frc consts  --      0.1719                 0.1756                 0.3152
 IR Inten    --      0.9706                 0.2732                 5.2887

                     10                     11                     12
                      A                      A                      A
 Frequencies --    487.9950               569.7904               718.3879
 Red. masses --      2.3723                 3.4080                 3.4287
 Frc consts  --      0.3329                 0.6519                 1.0426
 IR Inten    --      1.8699                 2.9028                19.0438

                     13                     14                     15
                      A                      A                      A
 Frequencies --    767.4562               872.2546               901.5674
 Red. masses --      1.4196                 2.5003                 1.2925
 Frc consts  --      0.4926                 1.1208                 0.6190
 IR Inten    --     49.3940                 9.2693                 6.4129

                     16                     17                     18
                      A                      A                      A
 Frequencies --    935.7456               951.2061               971.0474
 Red. masses --      1.1725                 1.4670                 2.3486
 Frc consts  --      0.6049                 0.7820                 1.3048
 IR Inten    --      0.4016                 3.0144                22.7583

                     19                     20                     21
                      A                      A                      A
 Frequencies --   1082.7965              1160.6168              1177.7205
 Red. masses --      2.8264                 2.0853                 2.5016
 Frc consts  --      1.9524                 1.6550                 2.0444
 IR Inten    --     20.8557                34.8009               212.5661

                     22                     23                     24
                      A                      A                      A
 Frequencies --   1185.2256              1214.9032              1268.4406
 Red. masses --      2.1027                 2.0481                 1.2551
 Frc consts  --      1.7403                 1.7811                 1.1898
 IR Inten    --     59.2709                88.8772                73.7533

                     25                     26                     27
                      A                      A                      A
 Frequencies --   1321.7506              1373.1658              1380.6280
 Red. masses --      1.3948                 1.2872                 1.2479
 Frc consts  --      1.4357                 1.4300                 1.4014
 IR Inten    --     83.7755                 1.8140                67.1368

                     28                     29                     30
                      A                      A                      A
 Frequencies --   1408.3919              1419.6438              1449.5933
 Red. masses --      1.4548                 1.3267                 1.4915
 Frc consts  --      1.7002                 1.5754                 1.8465
 IR Inten    --     26.1257                42.0255                51.4318

                     31                     32                     33
                      A                      A                      A
 Frequencies --   1482.0735              1489.8847              1495.0450
 Red. masses --      1.0573                 1.0505                 1.0555
 Frc consts  --      1.3683                 1.3739                 1.3900
 IR Inten    --      0.7407                 0.0453                 5.4182

                     34                     35                     36
                      A                      A                      A
 Frequencies --   1513.8653              1813.9658              3009.1423
 Red. masses --      1.0615                 6.1206                 1.0836
 Frc consts  --      1.4333                11.8660                 5.7809
 IR Inten    --      7.6557                28.7320                40.2832

                     37                     38                     39
                      A                      A                      A
 Frequencies --   3063.4622              3070.6900              3139.5811
 Red. masses --      1.0346                 1.0350                 1.1031
 Frc consts  --      5.7205                 5.7501                 6.4060
 IR Inten    --     11.2152                12.8326                 6.1689

                     40                     41                     42
                      A                      A                      A
 Frequencies --   3141.9081              3147.2726              3153.6828
 Red. masses --      1.1024                 1.1021                 1.1030
 Frc consts  --      6.4118                 6.4322                 6.4636
 IR Inten    --     14.4383                32.4152                18.0181

                     43                     44                     45
                      A                      A                      A
 Frequencies --   3173.0573              3218.5788              3929.3369
 Red. masses --      1.0871                 1.0974                 1.0669
 Frc consts  --      6.4490                 6.6979                 9.7058
 IR Inten    --      9.3568                14.5770               118.4377

 - Thermochemistry -
 -------------------
 Temperature   298.150 Kelvin.  Pressure   1.00000 Atm.
 Atom     1 has atomic number  8 and mass  15.99491

 Molecular mass:   102.06808 amu.
 Principal axes and moments of inertia in atomic units:
                           1         2         3
     Eigenvalues --   332.206601321.602111385.05105
           X            0.99989   0.00855   0.01186
           Y           -0.00873   0.99985   0.01488
           Z           -0.01173  -0.01498   0.99982
 This molecule is an asymmetric top.
 Rotational symmetry number  1.
 Rotational temperatures (Kelvin)      0.26072     0.06554     0.06253
 Rotational constants (GHZ):           5.43259     1.36557     1.30301
 Zero-point vibrational energy     385379.2 (Joules/Mol)
                                   92.10783 (Kcal/Mol)
 Warning -- explicit consideration of  11 degrees of freedom as
           vibrations may cause significant error
 Vibrational temperatures:     44.94   125.32   201.89   245.46   300.16
          (Kelvin)            354.78   430.93   516.57   615.04   702.12
                              819.80  1033.60  1104.20  1254.98  1297.15
                             1346.33  1368.57  1397.12  1557.90  1669.87
                             1694.48  1705.28  1747.97  1825.00  1901.70
                             1975.68  1986.42  2026.36  2042.55  2085.64
                             2132.37  2143.61  2151.04  2178.11  2609.89
                             4329.48  4407.64  4418.04  4517.16  4520.50
                             4528.22  4537.45  4565.32  4630.82  5653.44

 Zero-point correction=                           0.146783 (Hartree/Particle)
 Thermal correction to Energy=                    0.155643
 Thermal correction to Enthalpy=                  0.156587
 Thermal correction to Gibbs Free Energy=         0.112689
 Sum of electronic and zero-point Energies=           -346.794645
 Sum of electronic and thermal Energies=              -346.785785
 Sum of electronic and thermal Enthalpies=            -346.784841
 Sum of electronic and thermal Free Energies=         -346.828739

                     E (Thermal)             CV                S
                      KCal/Mol        Cal/Mol-Kelvin    Cal/Mol-Kelvin
 Total                   97.667             30.449             92.391
 Electronic               0.000              0.000              0.000
 Translational            0.889              2.981             39.779
 Rotational               0.889              2.981             27.899
 Vibrational             95.890             24.487             24.713
 Vibration     1          0.594              1.983              5.749
 Vibration     2          0.601              1.958              3.724
 Vibration     3          0.615              1.913              2.799
 Vibration     4          0.626              1.879              2.429
 Vibration     5          0.642              1.828              2.056
 Vibration     6          0.661              1.768              1.755
 Vibration     7          0.692              1.675              1.420
 Vibration     8          0.734              1.557              1.126
 Vibration     9          0.789              1.410              0.867
 Vibration    10          0.844              1.277              0.689
 Vibration    11          0.926              1.097              0.505

                           ! Non-Optimized Parameters !
 Normal termination of Gaussian 16 at Thu Sep 26 05:13:33 2019.
