 Gaussian 16, Revision A.03,
 Gaussian 16:  EM64L-G16RevA.03 25-Dec-2016

 ----------------------------------------------------------------------
 #p m062x/cc-pVTZ opt=(calcfc,maxcycles=900,Tight) freq IOP(7/33=1,2/16
 =3) scf=(maxcycle=900)
 ----------------------------------------------------------------------

 ------------------------------
 Gaussian input prepared by ASE
 ------------------------------
 Symbolic Z-matrix:
 Charge =  0 Multiplicity = 1

 SCF Done:  E(RM062X) =  -346.917708473     A.U. after   13 cycles
 SCF Done:  E(RM062X) =  -346.932058341     A.U. after   13 cycles
 SCF Done:  E(RM062X) =  -346.919207618     A.U. after   12 cycles
 SCF Done:  E(RM062X) =  -346.935321790     A.U. after   12 cycles
 SCF Done:  E(RM062X) =  -346.937938988     A.U. after   11 cycles
 SCF Done:  E(RM062X) =  -346.919209187     A.U. after   12 cycles
 SCF Done:  E(RM062X) =  -346.939947325     A.U. after   12 cycles
 SCF Done:  E(RM062X) =  -346.940499090     A.U. after   11 cycles
 SCF Done:  E(RM062X) =  -346.940831216     A.U. after   11 cycles
 SCF Done:  E(RM062X) =  -346.940956937     A.U. after   11 cycles
 SCF Done:  E(RM062X) =  -346.941428122     A.U. after    3 cycles
 SCF Done:  E(RM062X) =  -346.941428123     A.U. after    4 cycles
 SCF Done:  E(RM062X) =  -346.941428122     A.U. after    3 cycles
 SCF Done:  E(RM062X) =  -346.941428123     A.U. after    3 cycles
 SCF Done:  E(RM062X) =  -346.941428122     A.U. after    3 cycles
 SCF Done:  E(RM062X) =  -346.941428123     A.U. after    3 cycles
 SCF Done:  E(RM062X) =  -346.941428124     A.U. after    4 cycles
 SCF Done:  E(RM062X) =  -346.941428122     A.U. after    4 cycles
 SCF Done:  E(RM062X) =  -346.941428124     A.U. after    2 cycles
 Optimization completed.
    -- Stationary point found.
 Normal termination of Gaussian 16 at Thu Sep 26 09:57:17 2019.

 ----------------------------------------------------------------------
 #P Geom=AllCheck Guess=TCheck SCRF=Check Test GenChk RM062X/CC-pVTZ Fr
 eq
 ----------------------------------------------------------------------

 Structure from the checkpoint file:  "/scratch/harms.n/gauss_scrdir/Gau-10603.chk"
 ------------------------------
 Gaussian input prepared by ASE
 ------------------------------
 Charge =  0 Multiplicity = 1

                         Standard orientation:
 ---------------------------------------------------------------------
 Center     Atomic      Atomic             Coordinates (Angstroms)
 Number     Number       Type             X           Y           Z
 ---------------------------------------------------------------------
      1          8           0       -0.088290   -0.546399    0.183579
      2          8           0        2.498506   -0.350907   -0.846402
      3          6           0       -1.370820    0.065263    0.309559
      4          6           0       -2.378698   -0.945963   -0.191962
      5          6           0       -1.416143    1.367483   -0.470583
      6          6           0        0.913782    0.094756    0.840035
      7          6           0        2.149913    0.166359    0.367492
      8          1           0       -1.549697    0.268686    1.373369
      9          1           0       -2.180002   -1.171564   -1.239761
     10          1           0       -2.308873   -1.869723    0.379442
     11          1           0       -3.390204   -0.550771   -0.105220
     12          1           0       -1.228866    1.167378   -1.525996
     13          1           0       -0.655537    2.060949   -0.112671
     14          1           0       -2.392614    1.840965   -0.369249
     15          1           0        0.677830    0.522263    1.808816
     16          1           0        2.924881    0.628841    0.963339
     17          1           0        3.433148   -0.205965   -0.996731
 ---------------------------------------------------------------------

 SCF Done:  E(RM062X) =  -346.941428124     A.U. after    1 cycles

 The electronic state is 1-A.
 Alpha  occ. eigenvalues --  -19.64156 -19.63265 -10.59039 -10.57932 -10.57059
 Alpha  occ. eigenvalues --  -10.52158 -10.52148  -1.18122  -1.16350  -0.89294
 Alpha  occ. eigenvalues --   -0.83075  -0.78234  -0.68644  -0.66274  -0.61659
 Alpha  occ. eigenvalues --   -0.56619  -0.54243  -0.52589  -0.50281  -0.46562
 Alpha  occ. eigenvalues --   -0.45749  -0.45020  -0.43094  -0.42781  -0.41844
 Alpha  occ. eigenvalues --   -0.38989  -0.36568  -0.26058
 Alpha virt. eigenvalues --    0.05736   0.07899   0.08489   0.10043   0.11603
 Alpha virt. eigenvalues --    0.12166   0.12999   0.14827   0.16414   0.17235
 Alpha virt. eigenvalues --    0.18015   0.18746   0.21254   0.23613   0.25900

 Mulliken charges:
               1
     1  O   -0.245597
     2  O   -0.309206
     3  C    0.006434
     4  C   -0.340863
     5  C   -0.346216
     6  C   -0.074131
     7  C   -0.014187
     8  H    0.122392
     9  H    0.125228
    10  H    0.123870
    11  H    0.104458
    12  H    0.130558
    13  H    0.123418
    14  H    0.117810
    15  H    0.127286
    16  H    0.099486
    17  H    0.249260
 Sum of Mulliken charges =  -0.00000

 Dipole moment (field-independent basis, Debye):
    X=              0.7036    Y=              1.5186    Z=              0.8666  Tot=              1.8847
 Quadrupole moment (field-independent basis, Debye-Ang):
   XX=            -31.1056   YY=            -45.9193   ZZ=            -43.1238
   XY=              1.7287   XZ=             -0.6402   YZ=              0.6102

  Exact polarizability:  89.922   1.937  58.047  -2.963   1.700  60.926
 Approx polarizability:  93.436   1.212  68.255  -6.399   3.106  75.291

                      1                      2                      3
                      A                      A                      A
 Frequencies --     31.2460                87.1069               140.3626
 Red. masses --      3.9047                 3.2349                 1.1640
 Frc consts  --      0.0022                 0.0145                 0.0135
 IR Inten    --      1.3738                 6.0985               106.4556

                      4                      5                      6
                      A                      A                      A
 Frequencies --    170.5988               208.6248               246.5868
 Red. masses --      3.2201                 1.0398                 1.1765
 Frc consts  --      0.0552                 0.0267                 0.0421
 IR Inten    --      0.5916                 0.0628                 0.1754

                      7                      8                      9
                      A                      A                      A
 Frequencies --    299.5122               359.0343               427.4780
 Red. masses --      3.2523                 2.3122                 2.9279
 Frc consts  --      0.1719                 0.1756                 0.3152
 IR Inten    --      0.9706                 0.2732                 5.2879

                     10                     11                     12
                      A                      A                      A
 Frequencies --    487.9955               569.7889               718.3834
 Red. masses --      2.3723                 3.4081                 3.4285
 Frc consts  --      0.3329                 0.6519                 1.0425
 IR Inten    --      1.8697                 2.9035                19.0454

                     13                     14                     15
                      A                      A                      A
 Frequencies --    767.4500               872.2555               901.5649
 Red. masses --      1.4196                 2.5003                 1.2925
 Frc consts  --      0.4926                 1.1208                 0.6190
 IR Inten    --     49.3915                 9.2691                 6.4095

                     16                     17                     18
                      A                      A                      A
 Frequencies --    935.7433               951.2074               971.0486
 Red. masses --      1.1724                 1.4670                 2.3486
 Frc consts  --      0.6049                 0.7820                 1.3048
 IR Inten    --      0.4017                 3.0138                22.7600

                     19                     20                     21
                      A                      A                      A
 Frequencies --   1082.7986              1160.6162              1177.7206
 Red. masses --      2.8264                 2.0853                 2.5015
 Frc consts  --      1.9524                 1.6550                 2.0443
 IR Inten    --     20.8552                34.8148               212.5427

                     22                     23                     24
                      A                      A                      A
 Frequencies --   1185.2269              1214.9036              1268.4405
 Red. masses --      2.1028                 2.0481                 1.2551
 Frc consts  --      1.7404                 1.7811                 1.1898
 IR Inten    --     59.2902                88.8858                73.7540

                     25                     26                     27
                      A                      A                      A
 Frequencies --   1321.7520              1373.1654              1380.6279
 Red. masses --      1.3948                 1.2872                 1.2479
 Frc consts  --      1.4357                 1.4300                 1.4014
 IR Inten    --     83.7728                 1.8120                67.1400

                     28                     29                     30
                      A                      A                      A
 Frequencies --   1408.3916              1419.6434              1449.5947
 Red. masses --      1.4548                 1.3267                 1.4915
 Frc consts  --      1.7002                 1.5754                 1.8465
 IR Inten    --     26.1258                42.0244                51.4356

                     31                     32                     33
                      A                      A                      A
 Frequencies --   1482.0728              1489.8845              1495.0441
 Red. masses --      1.0573                 1.0505                 1.0555
 Frc consts  --      1.3683                 1.3739                 1.3900
 IR Inten    --      0.7406                 0.0454                 5.4179

                     34                     35                     36
                      A                      A                      A
 Frequencies --   1513.8652              1813.9687              3009.1404
 Red. masses --      1.0615                 6.1206                 1.0836
 Frc consts  --      1.4333                11.8660                 5.7809
 IR Inten    --      7.6557                28.7321                40.2832

                     37                     38                     39
                      A                      A                      A
 Frequencies --   3063.4603              3070.6886              3139.5793
 Red. masses --      1.0346                 1.0350                 1.1031
 Frc consts  --      5.7205                 5.7501                 6.4060
 IR Inten    --     11.2149                12.8326                 6.1673

                     40                     41                     42
                      A                      A                      A
 Frequencies --   3141.9050              3147.2706              3153.6821
 Red. masses --      1.1024                 1.1021                 1.1030
 Frc consts  --      6.4118                 6.4322                 6.4636
 IR Inten    --     14.4405                32.4160                18.0166

                     43                     44                     45
                      A                      A                      A
 Frequencies --   3173.0654              3218.5823              3929.3397
 Red. masses --      1.0871                 1.0974                 1.0669
 Frc consts  --      6.4491                 6.6979                 9.7058
 IR Inten    --      9.3558                14.5769               118.4385

 - Thermochemistry -
 -------------------
 Temperature   298.150 Kelvin.  Pressure   1.00000 Atm.
 Atom     1 has atomic number  8 and mass  15.99491

 Molecular mass:   102.06808 amu.
 Principal axes and moments of inertia in atomic units:
                           1         2         3
     Eigenvalues --   332.203711321.611911385.07044
           X            0.99989   0.00855   0.01186
           Y           -0.00873   0.99985   0.01488
           Z           -0.01173  -0.01498   0.99982
 This molecule is an asymmetric top.
 Rotational symmetry number  1.
 Rotational temperatures (Kelvin)      0.26073     0.06554     0.06253
 Rotational constants (GHZ):           5.43263     1.36556     1.30300
 Zero-point vibrational energy     385379.5 (Joules/Mol)
                                   92.10791 (Kcal/Mol)
 Warning -- explicit consideration of  11 degrees of freedom as
           vibrations may cause significant error
 Vibrational temperatures:     44.96   125.33   201.95   245.45   300.16
          (Kelvin)            354.78   430.93   516.57   615.05   702.12
                              819.80  1033.59  1104.19  1254.98  1297.15
                             1346.33  1368.58  1397.12  1557.91  1669.87
                             1694.48  1705.28  1747.98  1825.00  1901.71
                             1975.68  1986.42  2026.36  2042.55  2085.64
                             2132.37  2143.61  2151.04  2178.11  2609.90
                             4329.48  4407.64  4418.04  4517.15  4520.50
                             4528.22  4537.45  4565.33  4630.82  5653.44

 Zero-point correction=                           0.146783 (Hartree/Particle)
 Thermal correction to Energy=                    0.155643
 Thermal correction to Enthalpy=                  0.156587
 Thermal correction to Gibbs Free Energy=         0.112690
 Sum of electronic and zero-point Energies=           -346.794645
 Sum of electronic and thermal Energies=              -346.785785
 Sum of electronic and thermal Enthalpies=            -346.784841
 Sum of electronic and thermal Free Energies=         -346.828739

                     E (Thermal)             CV                S
                      KCal/Mol        Cal/Mol-Kelvin    Cal/Mol-Kelvin
 Total                   97.667             30.449             92.390
 Electronic               0.000              0.000              0.000
 Translational            0.889              2.981             39.779
 Rotational               0.889              2.981             27.899
 Vibrational             95.890             24.487             24.712
 Vibration     1          0.594              1.983              5.749
 Vibration     2          0.601              1.958              3.724
 Vibration     3          0.615              1.913              2.799
 Vibration     4          0.626              1.879              2.429
 Vibration     5          0.642              1.828              2.056
 Vibration     6          0.661              1.768              1.755
 Vibration     7          0.692              1.675              1.420
 Vibration     8          0.734              1.557              1.126
 Vibration     9          0.789              1.410              0.867
 Vibration    10          0.844              1.277              0.689
 Vibration    11          0.926              1.097              0.505

                           ! Non-Optimized Parameters !
 Normal termination of Gaussian 16 at Thu Sep 26 11:17:18 2019.
