 Gaussian 16, Revision A.03,
 Gaussian 16:  EM64L-G16RevA.03 25-Dec-2016

 ----------------------------------------------------------------------
 #p m062x/cc-pVTZ opt=(calcfc,maxcycles=900,Tight) freq IOP(7/33=1,2/16
 =3) scf=(maxcycle=900)
 ----------------------------------------------------------------------

 ------------------------------
 Gaussian input prepared by ASE
 ------------------------------
 Symbolic Z-matrix:
 Charge =  0 Multiplicity = 1

 SCF Done:  E(RM062X) =  -346.911542629     A.U. after   13 cycles
 SCF Done:  E(RM062X) =  -346.932076632     A.U. after   13 cycles
 SCF Done:  E(RM062X) =  -346.930860758     A.U. after   12 cycles
 SCF Done:  E(RM062X) =  -346.938300052     A.U. after   12 cycles
 SCF Done:  E(RM062X) =  -346.940715190     A.U. after   12 cycles
 SCF Done:  E(RM062X) =  -346.941451061     A.U. after   11 cycles
 SCF Done:  E(RM062X) =  -346.941930648     A.U. after   11 cycles
 SCF Done:  E(RM062X) =  -346.942122588     A.U. after   10 cycles
 SCF Done:  E(RM062X) =  -346.942246095     A.U. after   10 cycles
 SCF Done:  E(RM062X) =  -346.942294173     A.U. after   10 cycles
 SCF Done:  E(RM062X) =  -346.942391360     A.U. after    9 cycles
 SCF Done:  E(RM062X) =  -346.942395837     A.U. after    8 cycles
 SCF Done:  E(RM062X) =  -346.942397905     A.U. after    8 cycles
 SCF Done:  E(RM062X) =  -346.942400329     A.U. after    8 cycles
 SCF Done:  E(RM062X) =  -346.942402487     A.U. after    8 cycles
 SCF Done:  E(RM062X) =  -346.942403259     A.U. after    8 cycles
 SCF Done:  E(RM062X) =  -346.942403784     A.U. after    8 cycles
 SCF Done:  E(RM062X) =  -346.942403880     A.U. after    7 cycles
 SCF Done:  E(RM062X) =  -346.942403880     A.U. after    3 cycles
 Optimization completed.
    -- Stationary point found.
 Normal termination of Gaussian 16 at Thu Sep 26 05:31:22 2019.

 ----------------------------------------------------------------------
 #P Geom=AllCheck Guess=TCheck SCRF=Check Test GenChk RM062X/CC-pVTZ Fr
 eq
 ----------------------------------------------------------------------

 Structure from the checkpoint file:  "/scratch/harms.n/gauss_scrdir/Gau-1229.chk"
 ------------------------------
 Gaussian input prepared by ASE
 ------------------------------
 Charge =  0 Multiplicity = 1

                         Standard orientation:
 ---------------------------------------------------------------------
 Center     Atomic      Atomic             Coordinates (Angstroms)
 Number     Number       Type             X           Y           Z
 ---------------------------------------------------------------------
      1          8           0       -0.325444   -1.073741    0.155802
      2          8           0        1.805860    0.932205   -0.651739
      3          6           0       -0.954576    0.158999   -0.219549
      4          6           0       -0.900870    1.149398    0.929227
      5          6           0       -2.375392   -0.210838   -0.590005
      6          6           0        1.012409   -1.110083    0.346533
      7          6           0        1.978255   -0.258479    0.015840
      8          1           0       -0.437198    0.568146   -1.087178
      9          1           0       -1.425035    0.740481    1.794093
     10          1           0        0.128066    1.367449    1.207468
     11          1           0       -1.382332    2.083305    0.638894
     12          1           0       -2.879681   -0.653434    0.269480
     13          1           0       -2.382642   -0.932399   -1.405019
     14          1           0       -2.927114    0.676068   -0.899791
     15          1           0        1.315407   -2.026750    0.832486
     16          1           0        2.993107   -0.530130    0.271512
     17          1           0        2.595138    1.465571   -0.546718
 ---------------------------------------------------------------------

 SCF Done:  E(RM062X) =  -346.942403880     A.U. after    1 cycles

 The electronic state is 1-A.
 Alpha  occ. eigenvalues --  -19.64819 -19.63793 -10.58399 -10.57993 -10.57818
 Alpha  occ. eigenvalues --  -10.51905 -10.51699  -1.18333  -1.16676  -0.89120
 Alpha  occ. eigenvalues --   -0.83470  -0.77832  -0.70826  -0.63704  -0.62981
 Alpha  occ. eigenvalues --   -0.56561  -0.53848  -0.52802  -0.49525  -0.47078
 Alpha  occ. eigenvalues --   -0.46223  -0.44809  -0.43150  -0.42955  -0.41369
 Alpha  occ. eigenvalues --   -0.38575  -0.36993  -0.26185
 Alpha virt. eigenvalues --    0.05003   0.08520   0.09022   0.10530   0.12011
 Alpha virt. eigenvalues --    0.12884   0.13769   0.14901   0.15798   0.17170
 Alpha virt. eigenvalues --    0.18030   0.18944   0.21377   0.24229   0.25378

 Mulliken charges:
               1
     1  O   -0.247038
     2  O   -0.330298
     3  C   -0.003931
     4  C   -0.362697
     5  C   -0.344626
     6  C   -0.061402
     7  C   -0.057304
     8  H    0.162778
     9  H    0.123335
    10  H    0.139280
    11  H    0.120648
    12  H    0.117277
    13  H    0.122813
    14  H    0.105854
    15  H    0.147579
    16  H    0.114748
    17  H    0.252986
 Sum of Mulliken charges =  -0.00000

 Dipole moment (field-independent basis, Debye):
    X=              1.5318    Y=              1.3353    Z=              0.2657  Tot=              2.0494
 Quadrupole moment (field-independent basis, Debye-Ang):
   XX=            -35.1824   YY=            -42.8926   ZZ=            -45.4516
   XY=              1.2473   XZ=              1.1710   YZ=             -1.0366

  Exact polarizability:  81.357   2.930  65.515   0.152  -2.555  55.488
 Approx polarizability:  86.747   7.642  80.756  -1.975  -5.961  68.534

                      1                      2                      3
                      A                      A                      A
 Frequencies --     85.5869               119.7085               136.6021
 Red. masses --      3.1391                 3.1579                 1.1254
 Frc consts  --      0.0135                 0.0267                 0.0124
 IR Inten    --      4.7391                 0.7342               121.7482

                      4                      5                      6
                      A                      A                      A
 Frequencies --    177.6855               205.1257               254.4991
 Red. masses --      2.2657                 1.1763                 1.2876
 Frc consts  --      0.0421                 0.0292                 0.0491
 IR Inten    --      1.6179                 0.4044                 0.1615

                      7                      8                      9
                      A                      A                      A
 Frequencies --    290.1038               360.0084               437.4015
 Red. masses --      3.4235                 2.2971                 3.2179
 Frc consts  --      0.1698                 0.1754                 0.3627
 IR Inten    --      1.1290                 1.4031                 4.3353

                     10                     11                     12
                      A                      A                      A
 Frequencies --    475.5435               552.7179               756.7723
 Red. masses --      2.3616                 4.0456                 1.3335
 Frc consts  --      0.3147                 0.7282                 0.4499
 IR Inten    --      2.7394                 6.6780                47.5395

                     13                     14                     15
                      A                      A                      A
 Frequencies --    807.0448               838.2601               923.3165
 Red. masses --      3.3475                 3.3140                 1.2338
 Frc consts  --      1.2846                 1.3720                 0.6197
 IR Inten    --      5.3338                39.9221                 1.3640

                     16                     17                     18
                      A                      A                      A
 Frequencies --    930.2386               938.8149               958.4357
 Red. masses --      2.2431                 1.1914                 1.4996
 Frc consts  --      1.1436                 0.6187                 0.8116
 IR Inten    --      1.6439                 0.8168                 2.0830

                     19                     20                     21
                      A                      A                      A
 Frequencies --   1036.6586              1151.6899              1175.2578
 Red. masses --      3.0997                 1.8645                 1.9577
 Frc consts  --      1.9626                 1.4571                 1.5932
 IR Inten    --     39.6099                28.0714                13.9295

                     22                     23                     24
                      A                      A                      A
 Frequencies --   1190.2914              1211.8662              1272.0862
 Red. masses --      2.5117                 2.1822                 1.2874
 Frc consts  --      2.0966                 1.8882                 1.2274
 IR Inten    --    135.8180                92.7551                95.9333

                     25                     26                     27
                      A                      A                      A
 Frequencies --   1368.6202              1375.3236              1388.4443
 Red. masses --      1.3582                 1.2791                 1.1893
 Frc consts  --      1.4989                 1.4255                 1.3508
 IR Inten    --     79.5543                37.9555                 2.9534

                     28                     29                     30
                      A                      A                      A
 Frequencies --   1410.1831              1420.1844              1447.5854
 Red. masses --      1.4676                 1.3201                 1.4445
 Frc consts  --      1.7195                 1.5688                 1.7834
 IR Inten    --     26.9098                20.5229                37.7593

                     31                     32                     33
                      A                      A                      A
 Frequencies --   1483.4168              1487.1946              1496.4970
 Red. masses --      1.0607                 1.0465                 1.0540
 Frc consts  --      1.3753                 1.3637                 1.3907
 IR Inten    --      1.3029                 0.7164                 3.8618

                     34                     35                     36
                      A                      A                      A
 Frequencies --   1512.4563              1800.4190              3065.3462
 Red. masses --      1.0564                 6.6441                 1.0362
 Frc consts  --      1.4238                12.6892                 5.7367
 IR Inten    --      6.8707                73.4490                11.8752

                     37                     38                     39
                      A                      A                      A
 Frequencies --   3068.5832              3098.7255              3135.6392
 Red. masses --      1.0368                 1.0844                 1.1024
 Frc consts  --      5.7518                 6.1346                 6.3861
 IR Inten    --     17.2303                 3.9466                 3.1782

                     40                     41                     42
                      A                      A                      A
 Frequencies --   3146.2118              3152.3679              3161.3686
 Red. masses --      1.1010                 1.1028                 1.1002
 Frc consts  --      6.4213                 6.4570                 6.4783
 IR Inten    --     36.9304                17.2875                13.4773

                     43                     44                     45
                      A                      A                      A
 Frequencies --   3204.8137              3229.5316              3914.8268
 Red. masses --      1.0863                 1.0964                 1.0669
 Frc consts  --      6.5737                 6.7376                 9.6339
 IR Inten    --      1.9384                18.1586               100.8601

 - Thermochemistry -
 -------------------
 Temperature   298.150 Kelvin.  Pressure   1.00000 Atm.
 Atom     1 has atomic number  8 and mass  15.99491

 Molecular mass:   102.06808 amu.
 Principal axes and moments of inertia in atomic units:
                           1         2         3
     Eigenvalues --   406.97963 999.018121163.80381
           X            0.99980  -0.01518   0.01287
           Y            0.01473   0.99931   0.03395
           Z           -0.01337  -0.03376   0.99934
 This molecule is an asymmetric top.
 Rotational symmetry number  1.
 Rotational temperatures (Kelvin)      0.21282     0.08670     0.07442
 Rotational constants (GHZ):           4.43448     1.80651     1.55073
 Zero-point vibrational energy     386713.5 (Joules/Mol)
                                   92.42675 (Kcal/Mol)
 Warning -- explicit consideration of  11 degrees of freedom as
           vibrations may cause significant error
 Vibrational temperatures:    123.14   172.23   196.54   255.65   295.13
          (Kelvin)            366.17   417.39   517.97   629.32   684.20
                              795.24  1088.83  1161.16  1206.07  1328.45
                             1338.41  1350.75  1378.98  1491.52  1657.02
                             1690.93  1712.56  1743.61  1830.25  1969.14
                             1978.78  1997.66  2028.94  2043.33  2082.75
                             2134.31  2139.74  2153.13  2176.09  2590.40
                             4410.35  4415.01  4458.37  4511.49  4526.70
                             4535.55  4548.50  4611.01  4646.58  5632.56

 Zero-point correction=                           0.147291 (Hartree/Particle)
 Thermal correction to Energy=                    0.155976
 Thermal correction to Enthalpy=                  0.156920
 Thermal correction to Gibbs Free Energy=         0.114382
 Sum of electronic and zero-point Energies=           -346.795112
 Sum of electronic and thermal Energies=              -346.786428
 Sum of electronic and thermal Enthalpies=            -346.785484
 Sum of electronic and thermal Free Energies=         -346.828022

                     E (Thermal)             CV                S
                      KCal/Mol        Cal/Mol-Kelvin    Cal/Mol-Kelvin
 Total                   97.876             30.393             89.529
 Electronic               0.000              0.000              0.000
 Translational            0.889              2.981             39.779
 Rotational               0.889              2.981             27.650
 Vibrational             96.099             24.432             22.100
 Vibration     1          0.601              1.959              3.758
 Vibration     2          0.609              1.933              3.105
 Vibration     3          0.614              1.917              2.851
 Vibration     4          0.628              1.870              2.353
 Vibration     5          0.640              1.833              2.087
 Vibration     6          0.665              1.755              1.699
 Vibration     7          0.686              1.692              1.473
 Vibration     8          0.735              1.555              1.122
 Vibration     9          0.798              1.389              0.835
 Vibration    10          0.832              1.304              0.722
 Vibration    11          0.908              1.134              0.539

 Optimization completed.
    -- Stationary point found.
 Normal termination of Gaussian 16 at Thu Sep 26 06:59:29 2019.
