 Gaussian 16, Revision A.03,
 Gaussian 16:  EM64L-G16RevA.03 25-Dec-2016

 ----------------------------------------------------------------------
 #p m062x/cc-pVTZ opt=(calcfc,maxcycles=900,Tight) freq IOP(7/33=1,2/16
 =3) scf=(maxcycle=900)
 ----------------------------------------------------------------------

 ------------------------------
 Gaussian input prepared by ASE
 ------------------------------
 Symbolic Z-matrix:
 Charge =  0 Multiplicity = 1

 SCF Done:  E(RM062X) =  -346.926283669     A.U. after   13 cycles
 SCF Done:  E(RM062X) =  -346.941986558     A.U. after   12 cycles
 SCF Done:  E(RM062X) =  -346.906899933     A.U. after   13 cycles
 SCF Done:  E(RM062X) =  -346.946517872     A.U. after   12 cycles
 SCF Done:  E(RM062X) =  -346.944882004     A.U. after   11 cycles
 SCF Done:  E(RM062X) =  -346.947655315     A.U. after   10 cycles
 SCF Done:  E(RM062X) =  -346.948353692     A.U. after   12 cycles
 SCF Done:  E(RM062X) =  -346.948813340     A.U. after   10 cycles
 SCF Done:  E(RM062X) =  -346.949033378     A.U. after   10 cycles
 SCF Done:  E(RM062X) =  -346.949236998     A.U. after   10 cycles
 SCF Done:  E(RM062X) =  -346.949532222     A.U. after    7 cycles
 SCF Done:  E(RM062X) =  -346.949533757     A.U. after    9 cycles
 SCF Done:  E(RM062X) =  -346.949535024     A.U. after   10 cycles
 SCF Done:  E(RM062X) =  -346.949535109     A.U. after    9 cycles
 SCF Done:  E(RM062X) =  -346.949535716     A.U. after    8 cycles
 SCF Done:  E(RM062X) =  -346.949535511     A.U. after    7 cycles
 SCF Done:  E(RM062X) =  -346.949535505     A.U. after    4 cycles
 SCF Done:  E(RM062X) =  -346.949535523     A.U. after    7 cycles
 SCF Done:  E(RM062X) =  -346.949535505     A.U. after    5 cycles
 Optimization completed.
    -- Stationary point found.
 Normal termination of Gaussian 16 at Thu Sep 26 13:00:56 2019.

 ----------------------------------------------------------------------
 #P Geom=AllCheck Guess=TCheck SCRF=Check Test GenChk RM062X/CC-pVTZ Fr
 eq
 ----------------------------------------------------------------------

 Structure from the checkpoint file:  "/scratch/harms.n/gauss_scrdir/Gau-28463.chk"
 ------------------------------
 Gaussian input prepared by ASE
 ------------------------------
 Charge =  0 Multiplicity = 1

                         Standard orientation:
 ---------------------------------------------------------------------
 Center     Atomic      Atomic             Coordinates (Angstroms)
 Number     Number       Type             X           Y           Z
 ---------------------------------------------------------------------
      1          8           0        0.078772   -0.681124   -0.101408
      2          8           0       -2.346352    0.325129   -0.925859
      3          6           0        1.295929   -0.066462    0.336550
      4          6           0        1.174559    1.445379    0.275604
      5          6           0        2.393954   -0.600714   -0.556736
      6          6           0       -0.969197   -0.562927    0.777984
      7          6           0       -2.133184   -0.099189    0.344541
      8          1           0        1.475665   -0.378990    1.372004
      9          1           0        1.019725    1.762687   -0.756877
     10          1           0        0.332195    1.789919    0.874579
     11          1           0        2.082389    1.918133    0.649765
     12          1           0        2.197123   -0.319421   -1.591743
     13          1           0        2.441767   -1.686344   -0.496415
     14          1           0        3.357823   -0.186669   -0.263142
     15          1           0       -0.811055   -0.896694    1.795463
     16          1           0       -3.006397   -0.044796    0.975918
     17          1           0       -1.520956    0.193615   -1.409076
 ---------------------------------------------------------------------

 SCF Done:  E(RM062X) =  -346.949535505     A.U. after    1 cycles

 The electronic state is 1-A.
 Alpha  occ. eigenvalues --  -19.64448 -19.64208 -10.59928 -10.58483 -10.57298
 Alpha  occ. eigenvalues --  -10.53065 -10.52986  -1.19078  -1.16458  -0.89951
 Alpha  occ. eigenvalues --   -0.83090  -0.79072  -0.70572  -0.66670  -0.61273
 Alpha  occ. eigenvalues --   -0.58351  -0.53927  -0.52658  -0.50918  -0.46962
 Alpha  occ. eigenvalues --   -0.46169  -0.45783  -0.44998  -0.43892  -0.42445
 Alpha  occ. eigenvalues --   -0.39942  -0.36880  -0.27172
 Alpha virt. eigenvalues --    0.06206   0.07943   0.08233   0.10142   0.11279
 Alpha virt. eigenvalues --    0.11472   0.12453   0.14142   0.15717   0.16435
 Alpha virt. eigenvalues --    0.17801   0.18389   0.20272   0.22690   0.24780

 Mulliken charges:
               1
     1  O   -0.297769
     2  O   -0.350757
     3  C    0.022790
     4  C   -0.371528
     5  C   -0.337690
     6  C   -0.097201
     7  C    0.011917
     8  H    0.129570
     9  H    0.125992
    10  H    0.139479
    11  H    0.126751
    12  H    0.119402
    13  H    0.126986
    14  H    0.109560
    15  H    0.122637
    16  H    0.153536
    17  H    0.266325
 Sum of Mulliken charges =  -0.00000

 Dipole moment (field-independent basis, Debye):
    X=              1.8741    Y=              0.3530    Z=              1.0681  Tot=              2.1858
 Quadrupole moment (field-independent basis, Debye-Ang):
   XX=            -44.5986   YY=            -45.9387   ZZ=            -41.3019
   XY=              0.9261   XZ=             -2.6560   YZ=             -0.7825

  Exact polarizability:  83.837  -3.021  58.267   0.374  -2.599  61.810
 Approx polarizability:  89.838  -5.123  69.372   4.052  -3.955  77.373

                      1                      2                      3
                      A                      A                      A
 Frequencies --     31.2319                79.8470               191.8162
 Red. masses --      3.8033                 3.4960                 2.7329
 Frc consts  --      0.0022                 0.0131                 0.0592
 IR Inten    --      0.6819                 0.4955                 2.1515

                      4                      5                      6
                      A                      A                      A
 Frequencies --    212.6191               244.5630               303.9419
 Red. masses --      1.0978                 1.1646                 3.0881
 Frc consts  --      0.0292                 0.0410                 0.1681
 IR Inten    --      0.3974                 0.8336                 5.9608

                      7                      8                      9
                      A                      A                      A
 Frequencies --    355.7857               407.3994               487.2358
 Red. masses --      2.2545                 2.3844                 2.3681
 Frc consts  --      0.1681                 0.2332                 0.3312
 IR Inten    --      0.9334                 5.3503                 0.9167

                     10                     11                     12
                      A                      A                      A
 Frequencies --    506.4532               592.0231               734.5669
 Red. masses --      1.2876                 2.8739                 2.8534
 Frc consts  --      0.1946                 0.5935                 0.9071
 IR Inten    --     89.6054                19.4156                21.6822

                     13                     14                     15
                      A                      A                      A
 Frequencies --    785.8968               870.8238               926.4707
 Red. masses --      1.5201                 2.5549                 1.2980
 Frc consts  --      0.5532                 1.1415                 0.6564
 IR Inten    --     32.3582                 2.5309                 6.6737

                     16                     17                     18
                      A                      A                      A
 Frequencies --    934.9954               949.3071               968.1185
 Red. masses --      1.1754                 1.5096                 2.2275
 Frc consts  --      0.6054                 0.8015                 1.2301
 IR Inten    --      0.3428                 1.5970                 9.3514

                     19                     20                     21
                      A                      A                      A
 Frequencies --   1087.3963              1151.9693              1167.9871
 Red. masses --      3.0661                 2.3620                 2.1575
 Frc consts  --      2.1360                 1.8467                 1.7341
 IR Inten    --     63.3726               173.3880               106.6859

                     22                     23                     24
                      A                      A                      A
 Frequencies --   1181.6138              1206.5349              1248.2355
 Red. masses --      2.1479                 1.7995                 1.3901
 Frc consts  --      1.7669                 1.5434                 1.2761
 IR Inten    --     31.3095                37.5669                64.1102

                     25                     26                     27
                      A                      A                      A
 Frequencies --   1368.5590              1371.0782              1375.9345
 Red. masses --      1.4938                 1.2891                 1.2531
 Frc consts  --      1.6484                 1.4278                 1.3978
 IR Inten    --      0.2278                 5.2792                49.9520

                     28                     29                     30
                      A                      A                      A
 Frequencies --   1407.4611              1418.1529              1434.1542
 Red. masses --      1.4554                 1.3121                 1.3970
 Frc consts  --      1.6987                 1.5547                 1.6929
 IR Inten    --     25.9475                34.6916                49.6548

                     31                     32                     33
                      A                      A                      A
 Frequencies --   1483.3870              1488.5420              1495.8043
 Red. masses --      1.0588                 1.0484                 1.0557
 Frc consts  --      1.3727                 1.3687                 1.3917
 IR Inten    --      1.0720                 0.0417                 5.5965

                     34                     35                     36
                      A                      A                      A
 Frequencies --   1512.5859              1775.9191              3023.5617
 Red. masses --      1.0592                 6.2753                 1.0841
 Frc consts  --      1.4278                11.6609                 5.8393
 IR Inten    --      8.6229                57.9753                28.6655

                     37                     38                     39
                      A                      A                      A
 Frequencies --   3061.6643              3069.5328              3134.7192
 Red. masses --      1.0355                 1.0356                 1.1020
 Frc consts  --      5.7190                 5.7487                 6.3799
 IR Inten    --     10.2355                13.0541                 7.8755

                     40                     41                     42
                      A                      A                      A
 Frequencies --   3143.3677              3145.7069              3155.2581
 Red. masses --      1.1018                 1.1020                 1.1030
 Frc consts  --      6.4144                 6.4252                 6.4701
 IR Inten    --     18.5935                24.4862                16.1217

                     43                     44                     45
                      A                      A                      A
 Frequencies --   3202.1719              3255.4321              3819.3712
 Red. masses --      1.0896                 1.0984                 1.0645
 Frc consts  --      6.5826                 6.8584                 9.1488
 IR Inten    --      8.8353                 7.3444                51.7131

 - Thermochemistry -
 -------------------
 Temperature   298.150 Kelvin.  Pressure   1.00000 Atm.
 Atom     1 has atomic number  8 and mass  15.99491

 Molecular mass:   102.06808 amu.
 Principal axes and moments of inertia in atomic units:
                           1         2         3
     Eigenvalues --   348.915291222.431161277.14724
           X            0.99982   0.00501  -0.01839
           Y           -0.00450   0.99961   0.02773
           Z            0.01852  -0.02764   0.99945
 This molecule is an asymmetric top.
 Rotational symmetry number  1.
 Rotational temperatures (Kelvin)      0.24824     0.07085     0.06782
 Rotational constants (GHZ):           5.17243     1.47635     1.41310
 Zero-point vibrational energy     387405.8 (Joules/Mol)
                                   92.59222 (Kcal/Mol)
 Warning -- explicit consideration of  11 degrees of freedom as
           vibrations may cause significant error
 Vibrational temperatures:     44.94   114.88   275.98   305.91   351.87
          (Kelvin)            437.30   511.90   586.16   701.02   728.67
                              851.79  1056.88  1130.73  1252.92  1332.98
                             1345.25  1365.84  1392.91  1564.52  1657.43
                             1680.47  1700.08  1735.93  1795.93  1969.05
                             1972.68  1979.66  2025.02  2040.41  2063.43
                             2134.26  2141.68  2152.13  2176.27  2555.15
                             4350.23  4405.05  4416.37  4510.16  4522.61
                             4525.97  4539.71  4607.21  4683.84  5495.22

 Zero-point correction=                           0.147555 (Hartree/Particle)
 Thermal correction to Energy=                    0.155941
 Thermal correction to Enthalpy=                  0.156885
 Thermal correction to Gibbs Free Energy=         0.114106
 Sum of electronic and zero-point Energies=           -346.801980
 Sum of electronic and thermal Energies=              -346.793594
 Sum of electronic and thermal Enthalpies=            -346.792650
 Sum of electronic and thermal Free Energies=         -346.835430

                     E (Thermal)             CV                S
                      KCal/Mol        Cal/Mol-Kelvin    Cal/Mol-Kelvin
 Total                   97.855             29.677             90.038
 Electronic               0.000              0.000              0.000
 Translational            0.889              2.981             39.779
 Rotational               0.889              2.981             27.790
 Vibrational             96.077             23.715             22.469
 Vibration     1          0.594              1.983              5.750
 Vibration     2          0.600              1.963              3.895
 Vibration     3          0.634              1.851              2.210
 Vibration     4          0.644              1.822              2.021
 Vibration     5          0.660              1.772              1.769
 Vibration     6          0.695              1.666              1.395
 Vibration     7          0.731              1.563              1.140
 Vibration     8          0.772              1.454              0.936
 Vibration     9          0.843              1.278              0.691
 Vibration    10          0.862              1.236              0.642
 Vibration    11          0.950              1.049              0.464

 Optimization completed.
    -- Stationary point found.
 Normal termination of Gaussian 16 at Thu Sep 26 14:22:23 2019.
