 Gaussian 16, Revision A.03,
 Gaussian 16:  EM64L-G16RevA.03 25-Dec-2016

 ----------------------------------------------------------------------
 #p m062x/cc-pVTZ opt=(calcfc,maxcycles=900,Tight) freq IOP(7/33=1,2/16
 =3) scf=(maxcycle=900)
 ----------------------------------------------------------------------

 ------------------------------
 Gaussian input prepared by ASE
 ------------------------------
 Symbolic Z-matrix:
 Charge =  0 Multiplicity = 1

 SCF Done:  E(RM062X) =  -346.918292791     A.U. after   13 cycles
 SCF Done:  E(RM062X) =  -346.932044444     A.U. after   12 cycles
 SCF Done:  E(RM062X) =  -346.936286881     A.U. after   13 cycles
 SCF Done:  E(RM062X) =  -346.937316784     A.U. after   13 cycles
 SCF Done:  E(RM062X) =  -346.937853218     A.U. after   11 cycles
 SCF Done:  E(RM062X) =  -346.938001827     A.U. after   11 cycles
 SCF Done:  E(RM062X) =  -346.938129030     A.U. after   11 cycles
 SCF Done:  E(RM062X) =  -346.938175263     A.U. after   10 cycles
 SCF Done:  E(RM062X) =  -346.938219909     A.U. after   11 cycles
 SCF Done:  E(RM062X) =  -346.938219473     A.U. after    9 cycles
 SCF Done:  E(RM062X) =  -346.938232979     A.U. after    7 cycles
 SCF Done:  E(RM062X) =  -346.938232997     A.U. after    6 cycles
 SCF Done:  E(RM062X) =  -346.938233017     A.U. after    7 cycles
 SCF Done:  E(RM062X) =  -346.938233016     A.U. after    4 cycles
 SCF Done:  E(RM062X) =  -346.938233015     A.U. after    5 cycles
 SCF Done:  E(RM062X) =  -346.938233015     A.U. after    6 cycles
 SCF Done:  E(RM062X) =  -346.938233015     A.U. after    4 cycles
 SCF Done:  E(RM062X) =  -346.938233015     A.U. after    3 cycles
 SCF Done:  E(RM062X) =  -346.938233015     A.U. after    3 cycles
 Optimization completed.
    -- Stationary point found.
 Normal termination of Gaussian 16 at Wed Sep 25 17:22:26 2019.

 ----------------------------------------------------------------------
 #P Geom=AllCheck Guess=TCheck SCRF=Check Test GenChk RM062X/CC-pVTZ Fr
 eq
 ----------------------------------------------------------------------

 Structure from the checkpoint file:  "/scratch/harms.n/gauss_scrdir/Gau-46965.chk"
 ------------------------------
 Gaussian input prepared by ASE
 ------------------------------
 Charge =  0 Multiplicity = 1

                         Standard orientation:
 ---------------------------------------------------------------------
 Center     Atomic      Atomic             Coordinates (Angstroms)
 Number     Number       Type             X           Y           Z
 ---------------------------------------------------------------------
      1          8           0        0.291956   -0.212740    0.973984
      2          8           0       -2.967350   -0.105800   -0.546115
      3          6           0        1.547123    0.108916    0.362211
      4          6           0        1.455624    1.406498   -0.421175
      5          6           0        2.080332   -1.039718   -0.480056
      6          6           0       -0.746156   -0.462221    0.120566
      7          6           0       -1.898595    0.173405    0.261321
      8          1           0        2.206512    0.250533    1.218728
      9          1           0        0.800517    1.288344   -1.285039
     10          1           0        1.056269    2.202253    0.206591
     11          1           0        2.442872    1.701823   -0.776207
     12          1           0        1.514686   -1.155014   -1.405011
     13          1           0        2.037081   -1.973790    0.078784
     14          1           0        3.117688   -0.844905   -0.751144
     15          1           0       -0.616698   -1.232433   -0.632115
     16          1           0       -2.021257    0.935823    1.021220
     17          1           0       -3.764484    0.254402   -0.155969
 ---------------------------------------------------------------------

 SCF Done:  E(RM062X) =  -346.938233015     A.U. after    1 cycles

 The electronic state is 1-A.
 Alpha  occ. eigenvalues --  -19.64437 -19.63098 -10.59070 -10.58105 -10.56873
 Alpha  occ. eigenvalues --  -10.52666 -10.52366  -1.17680  -1.16601  -0.89121
 Alpha  occ. eigenvalues --   -0.83245  -0.78555  -0.70472  -0.64016  -0.61461
 Alpha  occ. eigenvalues --   -0.56682  -0.54446  -0.53489  -0.49246  -0.48331
 Alpha  occ. eigenvalues --   -0.46705  -0.45537  -0.43647  -0.42953  -0.41510
 Alpha  occ. eigenvalues --   -0.38833  -0.35321  -0.26678
 Alpha virt. eigenvalues --    0.06042   0.06821   0.07776   0.09799   0.11236
 Alpha virt. eigenvalues --    0.12455   0.13611   0.14895   0.16679   0.16782
 Alpha virt. eigenvalues --    0.17792   0.18206   0.20081   0.23845   0.24250

 Mulliken charges:
               1
     1  O   -0.275168
     2  O   -0.326301
     3  C    0.030278
     4  C   -0.382170
     5  C   -0.390580
     6  C   -0.057339
     7  C   -0.020259
     8  H    0.145225
     9  H    0.133189
    10  H    0.130364
    11  H    0.121720
    12  H    0.119210
    13  H    0.139894
    14  H    0.124642
    15  H    0.140079
    16  H    0.114537
    17  H    0.252680
 Sum of Mulliken charges =  -0.00000

 Dipole moment (field-independent basis, Debye):
    X=             -0.0372    Y=              1.0456    Z=             -0.0382  Tot=              1.0470
 Quadrupole moment (field-independent basis, Debye-Ang):
   XX=            -33.8371   YY=            -43.6008   ZZ=            -46.5527
   XY=             -3.3434   XZ=             -3.3477   YZ=              1.5891

  Exact polarizability:  88.537  -5.118  61.858  -0.682   2.934  55.619
 Approx polarizability:  93.761  -6.467  71.812   1.027   3.307  70.627

                      1                      2                      3
                      A                      A                      A
 Frequencies --     51.5193                71.4296               118.3155
 Red. masses --      2.2624                 3.1098                 1.5392
 Frc consts  --      0.0035                 0.0093                 0.0127
 IR Inten    --      3.5499                 1.2147                87.2099

                      4                      5                      6
                      A                      A                      A
 Frequencies --    198.7343               228.7400               261.2237
 Red. masses --      1.7772                 1.1196                 1.0520
 Frc consts  --      0.0414                 0.0345                 0.0423
 IR Inten    --     34.2911                 0.4621                 0.2459

                      7                      8                      9
                      A                      A                      A
 Frequencies --    326.8751               329.6580               399.9064
 Red. masses --      2.9868                 2.7443                 2.5101
 Frc consts  --      0.1880                 0.1757                 0.2365
 IR Inten    --      0.0832                 3.7291                 1.8753

                     10                     11                     12
                      A                      A                      A
 Frequencies --    438.7885               545.8743               583.7383
 Red. masses --      3.7659                 4.1210                 2.8291
 Frc consts  --      0.4272                 0.7235                 0.5680
 IR Inten    --     11.4967                 3.6827                 2.1471

                     13                     14                     15
                      A                      A                      A
 Frequencies --    834.8432               873.2834               928.7857
 Red. masses --      2.8983                 2.0210                 1.1761
 Frc consts  --      1.1901                 0.9081                 0.5978
 IR Inten    --      2.6314                 5.5463                 6.6155

                     16                     17                     18
                      A                      A                      A
 Frequencies --    937.3276               945.0776               977.8083
 Red. masses --      1.1945                 1.3005                 2.5099
 Frc consts  --      0.6183                 0.6844                 1.4139
 IR Inten    --     48.7127                13.7485                17.7125

                     19                     20                     21
                      A                      A                      A
 Frequencies --   1110.5418              1158.5477              1172.8749
 Red. masses --      1.9537                 2.1023                 1.9297
 Frc consts  --      1.4196                 1.6625                 1.5641
 IR Inten    --     34.8884                17.9839                11.4271

                     22                     23                     24
                      A                      A                      A
 Frequencies --   1204.7350              1216.9016              1248.1093
 Red. masses --      1.9841                 4.2109                 1.5997
 Frc consts  --      1.6967                 3.6740                 1.4682
 IR Inten    --     15.5344               545.5546                25.0628

                     25                     26                     27
                      A                      A                      A
 Frequencies --   1335.4249              1364.0170              1369.5802
 Red. masses --      1.3016                 1.3040                 1.2917
 Frc consts  --      1.3676                 1.4295                 1.4275
 IR Inten    --     16.2564                11.4239                 1.0583

                     28                     29                     30
                      A                      A                      A
 Frequencies --   1404.2269              1409.2494              1420.1082
 Red. masses --      1.4117                 1.3127                 1.3049
 Frc consts  --      1.6401                 1.5360                 1.5504
 IR Inten    --     26.3484                 8.6731                14.6872

                     31                     32                     33
                      A                      A                      A
 Frequencies --   1484.7107              1489.7110              1501.2762
 Red. masses --      1.0496                 1.0515                 1.0485
 Frc consts  --      1.3632                 1.3749                 1.3923
 IR Inten    --      0.7757                 1.4518                 8.1498

                     34                     35                     36
                      A                      A                      A
 Frequencies --   1513.5065              1800.5498              3063.5954
 Red. masses --      1.0617                 5.5176                 1.0347
 Frc consts  --      1.4329                10.5393                 5.7216
 IR Inten    --      4.5581                 2.6648                12.6572

                     37                     38                     39
                      A                      A                      A
 Frequencies --   3066.7632              3089.0305              3135.1605
 Red. masses --      1.0360                 1.0863                 1.1020
 Frc consts  --      5.7406                 6.1071                 6.3821
 IR Inten    --      6.6835                15.3237                 2.1108

                     40                     41                     42
                      A                      A                      A
 Frequencies --   3142.7087              3144.6791              3146.9867
 Red. masses --      1.1008                 1.1029                 1.1031
 Frc consts  --      6.4059                 6.4259                 6.4363
 IR Inten    --     42.7436                15.1778                18.6086

                     43                     44                     45
                      A                      A                      A
 Frequencies --   3181.8015              3195.3403              3924.6794
 Red. masses --      1.0887                 1.0949                 1.0669
 Frc consts  --      6.4938                 6.5866                 9.6828
 IR Inten    --     22.6853                 7.1211               122.1320

 - Thermochemistry -
 -------------------
 Temperature   298.150 Kelvin.  Pressure   1.00000 Atm.
 Atom     1 has atomic number  8 and mass  15.99491

 Molecular mass:   102.06808 amu.
 Principal axes and moments of inertia in atomic units:
                           1         2         3
     Eigenvalues --   334.814361359.359291444.21362
           X            0.99981  -0.00676  -0.01824
           Y            0.00796   0.99776   0.06640
           Z            0.01775  -0.06654   0.99763
 This molecule is an asymmetric top.
 Rotational symmetry number  1.
 Rotational temperatures (Kelvin)      0.25869     0.06372     0.05997
 Rotational constants (GHZ):           5.39027     1.32764     1.24964
 Zero-point vibrational energy     384879.0 (Joules/Mol)
                                   91.98829 (Kcal/Mol)
 Warning -- explicit consideration of  12 degrees of freedom as
           vibrations may cause significant error
 Vibrational temperatures:     74.12   102.77   170.23   285.93   329.11
          (Kelvin)            375.84   470.30   474.30   575.38   631.32
                              785.39   839.87  1201.15  1256.46  1336.32
                             1348.61  1359.76  1406.85  1597.82  1666.89
                             1687.51  1733.34  1750.85  1795.75  1921.38
                             1962.52  1970.52  2020.37  2027.60  2043.22
                             2136.17  2143.36  2160.00  2177.60  2590.59
                             4407.83  4412.39  4444.43  4510.80  4521.66
                             4524.49  4527.81  4577.90  4597.38  5646.74

 Zero-point correction=                           0.146593 (Hartree/Particle)
 Thermal correction to Energy=                    0.155502
 Thermal correction to Enthalpy=                  0.156446
 Thermal correction to Gibbs Free Energy=         0.112715
 Sum of electronic and zero-point Energies=           -346.791640
 Sum of electronic and thermal Energies=              -346.782731
 Sum of electronic and thermal Enthalpies=            -346.781787
 Sum of electronic and thermal Free Energies=         -346.825518

                     E (Thermal)             CV                S
                      KCal/Mol        Cal/Mol-Kelvin    Cal/Mol-Kelvin
 Total                   97.579             30.723             92.039
 Electronic               0.000              0.000              0.000
 Translational            0.889              2.981             39.779
 Rotational               0.889              2.981             27.977
 Vibrational             95.802             24.762             24.284
 Vibration     1          0.596              1.977              4.758
 Vibration     2          0.598              1.968              4.114
 Vibration     3          0.608              1.934              3.128
 Vibration     4          0.637              1.842              2.145
 Vibration     5          0.651              1.797              1.889
 Vibration     6          0.669              1.744              1.654
 Vibration     7          0.711              1.622              1.275
 Vibration     8          0.712              1.616              1.262
 Vibration     9          0.766              1.470              0.963
 Vibration    10          0.799              1.386              0.830
 Vibration    11          0.901              1.149              0.553
 Vibration    12          0.941              1.067              0.478

                           ! Non-Optimized Parameters !
 Normal termination of Gaussian 16 at Wed Sep 25 18:45:18 2019.
