 Gaussian 16, Revision A.03,
 Gaussian 16:  EM64L-G16RevA.03 25-Dec-2016

 ----------------------------------------------------------------------
 #p m062x/cc-pVTZ opt=(calcfc,maxcycles=900,Tight) freq IOP(7/33=1,2/16
 =3) scf=(maxcycle=900)
 ----------------------------------------------------------------------

 ------------------------------
 Gaussian input prepared by ASE
 ------------------------------
 Symbolic Z-matrix:
 Charge =  0 Multiplicity = 1

 SCF Done:  E(RM062X) =  -346.926300976     A.U. after   13 cycles
 SCF Done:  E(RM062X) =  -346.938947373     A.U. after   13 cycles
 SCF Done:  E(RM062X) =  -346.939901389     A.U. after   12 cycles
 SCF Done:  E(RM062X) =  -346.944993901     A.U. after   12 cycles
 SCF Done:  E(RM062X) =  -346.945854762     A.U. after   13 cycles
 SCF Done:  E(RM062X) =  -346.946414751     A.U. after   11 cycles
 SCF Done:  E(RM062X) =  -346.942057880     A.U. after   12 cycles
 SCF Done:  E(RM062X) =  -346.947447577     A.U. after   11 cycles
 SCF Done:  E(RM062X) =  -346.947653990     A.U. after   11 cycles
 SCF Done:  E(RM062X) =  -346.947705350     A.U. after   10 cycles
 SCF Done:  E(RM062X) =  -346.947919409     A.U. after    8 cycles
 SCF Done:  E(RM062X) =  -346.947919487     A.U. after    7 cycles
 SCF Done:  E(RM062X) =  -346.947919546     A.U. after    7 cycles
 SCF Done:  E(RM062X) =  -346.947919570     A.U. after    7 cycles
 SCF Done:  E(RM062X) =  -346.947919572     A.U. after    5 cycles
 SCF Done:  E(RM062X) =  -346.947919572     A.U. after    5 cycles
 SCF Done:  E(RM062X) =  -346.947919572     A.U. after    4 cycles
 SCF Done:  E(RM062X) =  -346.947919572     A.U. after    3 cycles
 SCF Done:  E(RM062X) =  -346.947919572     A.U. after    3 cycles
 Optimization completed.
    -- Stationary point found.
 Normal termination of Gaussian 16 at Sun Sep 29 03:40:36 2019.

 ----------------------------------------------------------------------
 #P Geom=AllCheck Guess=TCheck SCRF=Check Test GenChk RM062X/CC-pVTZ Fr
 eq
 ----------------------------------------------------------------------

 Structure from the checkpoint file:  "/scratch/harms.n/gauss_scrdir/Gau-17993.chk"
 ------------------------------
 Gaussian input prepared by ASE
 ------------------------------
 Charge =  0 Multiplicity = 1

                         Standard orientation:
 ---------------------------------------------------------------------
 Center     Atomic      Atomic             Coordinates (Angstroms)
 Number     Number       Type             X           Y           Z
 ---------------------------------------------------------------------
      1          8           0        0.014689    0.103743   -0.301708
      2          8           0        2.676190    0.759555   -0.159849
      3          6           0       -1.265388    0.031462    0.332094
      4          6           0       -2.080527   -1.112915   -0.246193
      5          6           0       -1.931319    1.372399    0.106814
      6          6           0        0.935965   -0.818913    0.125214
      7          6           0        2.215757   -0.474603    0.167463
      8          1           0       -1.106507   -0.127146    1.403954
      9          1           0       -2.227231   -0.953776   -1.314743
     10          1           0       -1.585479   -2.072880   -0.105950
     11          1           0       -3.055890   -1.163564    0.237371
     12          1           0       -2.039407    1.552969   -0.963051
     13          1           0       -1.333558    2.174484    0.536276
     14          1           0       -2.920134    1.388022    0.563535
     15          1           0        0.593282   -1.811483    0.380155
     16          1           0        2.989961   -1.169907    0.450956
     17          1           0        1.911007    1.292318   -0.408396
 ---------------------------------------------------------------------

 SCF Done:  E(RM062X) =  -346.947919572     A.U. after    1 cycles

 The electronic state is 1-A.
 Alpha  occ. eigenvalues --  -19.64527 -19.63892 -10.60046 -10.58143 -10.57310
 Alpha  occ. eigenvalues --  -10.53302 -10.53213  -1.18994  -1.16310  -0.90167
 Alpha  occ. eigenvalues --   -0.82972  -0.79304  -0.70585  -0.66592  -0.60453
 Alpha  occ. eigenvalues --   -0.59755  -0.54197  -0.51934  -0.49356  -0.48259
 Alpha  occ. eigenvalues --   -0.46393  -0.45846  -0.45148  -0.43956  -0.42863
 Alpha  occ. eigenvalues --   -0.39566  -0.37537  -0.26537
 Alpha virt. eigenvalues --    0.06152   0.07918   0.08494   0.10080   0.11150
 Alpha virt. eigenvalues --    0.11736   0.12181   0.14173   0.15407   0.17548
 Alpha virt. eigenvalues --    0.18164   0.18664   0.20691   0.22836   0.24997

 Mulliken charges:
               1
     1  O   -0.295885
     2  O   -0.347472
     3  C    0.024969
     4  C   -0.346849
     5  C   -0.346931
     6  C   -0.067139
     7  C   -0.016226
     8  H    0.129335
     9  H    0.127043
    10  H    0.120087
    11  H    0.123729
    12  H    0.124078
    13  H    0.123452
    14  H    0.112115
    15  H    0.122925
    16  H    0.147625
    17  H    0.265143
 Sum of Mulliken charges =  -0.00000

 Dipole moment (field-independent basis, Debye):
    X=             -2.2574    Y=             -0.6208    Z=              0.7058  Tot=              2.4452
 Quadrupole moment (field-independent basis, Debye-Ang):
   XX=            -46.1217   YY=            -40.9231   ZZ=            -45.0686
   XY=             -2.4827   XZ=              0.1664   YZ=             -1.2555

  Exact polarizability:  87.667   1.124  66.019   0.615  -1.499  52.304
 Approx polarizability:  93.011   3.637  75.677   0.070  -2.834  66.971

                      1                      2                      3
                      A                      A                      A
 Frequencies --     17.2877                85.4359               168.3408
 Red. masses --      4.0138                 3.4732                 2.8738
 Frc consts  --      0.0007                 0.0149                 0.0480
 IR Inten    --      0.5632                 0.5604                 2.2538

                      4                      5                      6
                      A                      A                      A
 Frequencies --    209.0128               251.7632               272.4774
 Red. masses --      1.0476                 1.7541                 1.7098
 Frc consts  --      0.0270                 0.0655                 0.0748
 IR Inten    --      0.0121                 1.2707                 0.3146

                      7                      8                      9
                      A                      A                      A
 Frequencies --    362.4205               451.9611               458.3489
 Red. masses --      2.2914                 1.9188                 1.8720
 Frc consts  --      0.1773                 0.2309                 0.2317
 IR Inten    --      0.4658                39.3772                26.2824

                     10                     11                     12
                      A                      A                      A
 Frequencies --    485.4241               577.2417               719.5697
 Red. masses --      1.8530                 3.2541                 2.9150
 Frc consts  --      0.2573                 0.6388                 0.8893
 IR Inten    --     29.5203                17.0772                19.0664

                     13                     14                     15
                      A                      A                      A
 Frequencies --    757.3168               877.8358               910.4147
 Red. masses --      1.3872                 2.5768                 1.2738
 Frc consts  --      0.4688                 1.1699                 0.6221
 IR Inten    --     30.3822                 2.0932                 6.8985

                     16                     17                     18
                      A                      A                      A
 Frequencies --    935.8759               950.0672               980.4004
 Red. masses --      1.1625                 1.4792                 2.4058
 Frc consts  --      0.5999                 0.7866                 1.3624
 IR Inten    --      0.4811                 0.6146                14.6035

                     19                     20                     21
                      A                      A                      A
 Frequencies --   1094.1485              1148.2969              1170.0045
 Red. masses --      2.9492                 2.3629                 2.2367
 Frc consts  --      2.0802                 1.8357                 1.8040
 IR Inten    --     64.9893               220.4068               107.8400

                     22                     23                     24
                      A                      A                      A
 Frequencies --   1183.8454              1209.1700              1250.1296
 Red. masses --      2.2445                 1.8897                 1.3338
 Frc consts  --      1.8533                 1.6279                 1.2282
 IR Inten    --     39.1088                62.7971                59.4598

                     25                     26                     27
                      A                      A                      A
 Frequencies --   1369.2208              1377.9726              1381.8717
 Red. masses --      1.4257                 1.3117                 1.2451
 Frc consts  --      1.5748                 1.4675                 1.4009
 IR Inten    --      1.1886                 5.8004                67.3624

                     28                     29                     30
                      A                      A                      A
 Frequencies --   1412.3250              1420.8388              1437.4068
 Red. masses --      1.4973                 1.2680                 1.4183
 Frc consts  --      1.7597                 1.5081                 1.7265
 IR Inten    --     19.1583                32.5300                70.3056

                     31                     32                     33
                      A                      A                      A
 Frequencies --   1484.3589              1488.6162              1499.1564
 Red. masses --      1.0506                 1.0485                 1.0569
 Frc consts  --      1.3639                 1.3690                 1.3995
 IR Inten    --      1.8002                 0.2426                 6.2605

                     34                     35                     36
                      A                      A                      A
 Frequencies --   1513.3711              1778.7723              3037.2292
 Red. masses --      1.0587                 6.3218                 1.0847
 Frc consts  --      1.4286                11.7851                 5.8956
 IR Inten    --      7.3913                57.4201                24.5038

                     37                     38                     39
                      A                      A                      A
 Frequencies --   3066.2183              3069.4201              3140.3929
 Red. masses --      1.0349                 1.0354                 1.1029
 Frc consts  --      5.7327                 5.7474                 6.4085
 IR Inten    --     12.8140                 9.9257                 1.1280

                     40                     41                     42
                      A                      A                      A
 Frequencies --   3144.9592              3146.6721              3151.8615
 Red. masses --      1.1020                 1.1021                 1.1030
 Frc consts  --      6.4219                 6.4292                 6.4557
 IR Inten    --     18.0595                31.7794                20.0082

                     43                     44                     45
                      A                      A                      A
 Frequencies --   3224.3243              3260.3900              3828.2783
 Red. masses --      1.0881                 1.0996                 1.0646
 Frc consts  --      6.6649                 6.8870                 9.1929
 IR Inten    --      7.5600                 8.4494                54.6323

 - Thermochemistry -
 -------------------
 Temperature   298.150 Kelvin.  Pressure   1.00000 Atm.
 Atom     1 has atomic number  8 and mass  15.99491

 Molecular mass:   102.06808 amu.
 Principal axes and moments of inertia in atomic units:
                           1         2         3
     Eigenvalues --   321.924631269.259831516.71960
           X            0.99993  -0.01132   0.00344
           Y            0.01133   0.99993  -0.00415
           Z           -0.00339   0.00419   0.99999
 This molecule is an asymmetric top.
 Rotational symmetry number  1.
 Rotational temperatures (Kelvin)      0.26905     0.06824     0.05711
 Rotational constants (GHZ):           5.60610     1.42188     1.18990
 Zero-point vibrational energy     387353.5 (Joules/Mol)
                                   92.57971 (Kcal/Mol)
 Warning -- explicit consideration of  11 degrees of freedom as
           vibrations may cause significant error
 Vibrational temperatures:     24.87   122.92   242.20   300.72   362.23
          (Kelvin)            392.03   521.44   650.27   659.46   698.42
                              830.52  1035.30  1089.61  1263.01  1309.88
                             1346.52  1366.93  1410.58  1574.24  1652.14
                             1683.38  1703.29  1739.73  1798.66  1970.00
                             1982.60  1988.21  2032.02  2044.27  2068.11
                             2135.66  2141.79  2156.95  2177.40  2559.26
                             4369.90  4411.60  4416.21  4518.32  4524.89
                             4527.36  4534.83  4639.08  4690.97  5508.04

 Zero-point correction=                           0.147535 (Hartree/Particle)
 Thermal correction to Energy=                    0.156027
 Thermal correction to Enthalpy=                  0.156971
 Thermal correction to Gibbs Free Energy=         0.113431
 Sum of electronic and zero-point Energies=           -346.800384
 Sum of electronic and thermal Energies=              -346.791893
 Sum of electronic and thermal Enthalpies=            -346.790948
 Sum of electronic and thermal Free Energies=         -346.834488

                     E (Thermal)             CV                S
                      KCal/Mol        Cal/Mol-Kelvin    Cal/Mol-Kelvin
 Total                   97.908             29.841             91.637
 Electronic               0.000              0.000              0.000
 Translational            0.889              2.981             39.779
 Rotational               0.889              2.981             27.918
 Vibrational             96.131             23.879             23.940
 Vibration     1          0.593              1.986              6.924
 Vibration     2          0.601              1.959              3.762
 Vibration     3          0.625              1.881              2.454
 Vibration     4          0.642              1.827              2.052
 Vibration     5          0.664              1.760              1.718
 Vibration     6          0.675              1.724              1.580
 Vibration     7          0.736              1.550              1.112
 Vibration     8          0.811              1.357              0.790
 Vibration     9          0.816              1.342              0.771
 Vibration    10          0.841              1.282              0.696
 Vibration    11          0.934              1.080              0.490

 Optimization completed on the basis of negligible forces.
    -- Stationary point found.
 Normal termination of Gaussian 16 at Sun Sep 29 05:13:42 2019.
