 Gaussian 16, Revision A.03,
 Gaussian 16:  EM64L-G16RevA.03 25-Dec-2016

 ----------------------------------------------------------------------
 #p m062x/cc-pVTZ opt=(calcfc,maxcycles=900,Tight) freq IOP(7/33=1,2/16
 =3) scf=(maxcycle=900)
 ----------------------------------------------------------------------

 ------------------------------
 Gaussian input prepared by ASE
 ------------------------------
 Symbolic Z-matrix:
 Charge =  0 Multiplicity = 1

 SCF Done:  E(RM062X) =  -346.921775911     A.U. after   12 cycles
 SCF Done:  E(RM062X) =  -346.936122743     A.U. after   12 cycles
 SCF Done:  E(RM062X) =  -346.935545600     A.U. after   11 cycles
 SCF Done:  E(RM062X) =  -346.939159950     A.U. after   11 cycles
 SCF Done:  E(RM062X) =  -346.917009460     A.U. after   14 cycles
 SCF Done:  E(RM062X) =  -346.939712444     A.U. after   10 cycles
 SCF Done:  E(RM062X) =  -346.940038889     A.U. after   11 cycles
 SCF Done:  E(RM062X) =  -346.940292694     A.U. after   11 cycles
 SCF Done:  E(RM062X) =  -346.940512787     A.U. after   12 cycles
 SCF Done:  E(RM062X) =  -346.940556378     A.U. after   10 cycles
 SCF Done:  E(RM062X) =  -346.940785064     A.U. after    8 cycles
 SCF Done:  E(RM062X) =  -346.940785766     A.U. after    8 cycles
 SCF Done:  E(RM062X) =  -346.940785797     A.U. after    7 cycles
 SCF Done:  E(RM062X) =  -346.940785800     A.U. after    5 cycles
 SCF Done:  E(RM062X) =  -346.940785799     A.U. after    4 cycles
 SCF Done:  E(RM062X) =  -346.940785799     A.U. after    4 cycles
 SCF Done:  E(RM062X) =  -346.940785800     A.U. after    3 cycles
 SCF Done:  E(RM062X) =  -346.940785799     A.U. after    4 cycles
 SCF Done:  E(RM062X) =  -346.940785800     A.U. after    4 cycles
 Optimization completed.
    -- Stationary point found.
 Normal termination of Gaussian 16 at Thu Sep 26 06:12:28 2019.

 ----------------------------------------------------------------------
 #P Geom=AllCheck Guess=TCheck SCRF=Check Test GenChk RM062X/CC-pVTZ Fr
 eq
 ----------------------------------------------------------------------

 Structure from the checkpoint file:  "/scratch/harms.n/gauss_scrdir/Gau-3982.chk"
 ------------------------------
 Gaussian input prepared by ASE
 ------------------------------
 Charge =  0 Multiplicity = 1

                         Standard orientation:
 ---------------------------------------------------------------------
 Center     Atomic      Atomic             Coordinates (Angstroms)
 Number     Number       Type             X           Y           Z
 ---------------------------------------------------------------------
      1          8           0        0.280719   -0.650296   -0.179524
      2          8           0       -3.221768    0.073836    0.187700
      3          6           0        1.424441    0.025038    0.344114
      4          6           0        1.459415    1.467460   -0.129478
      5          6           0        2.632530   -0.764144   -0.111575
      6          6           0       -0.906975   -0.247424    0.355101
      7          6           0       -1.998873   -0.159209   -0.386759
      8          1           0        1.359996    0.001651    1.439224
      9          1           0        0.560234    2.000309    0.178355
     10          1           0        2.326192    1.983393    0.283158
     11          1           0        1.521002    1.495213   -1.218168
     12          1           0        2.681229   -0.765339   -1.200727
     13          1           0        2.566896   -1.794547    0.232780
     14          1           0        3.547177   -0.318129    0.277239
     15          1           0       -0.932582   -0.066012    1.426321
     16          1           0       -1.964370   -0.338507   -1.454749
     17          1           0       -3.800606    0.483310   -0.457258
 ---------------------------------------------------------------------

 SCF Done:  E(RM062X) =  -346.940785800     A.U. after    1 cycles

 The electronic state is 1-A.
 Alpha  occ. eigenvalues --  -19.64193 -19.63681 -10.59333 -10.57870 -10.57269
 Alpha  occ. eigenvalues --  -10.52522 -10.52515  -1.17877  -1.16854  -0.89648
 Alpha  occ. eigenvalues --   -0.82992  -0.78577  -0.68856  -0.66086  -0.61621
 Alpha  occ. eigenvalues --   -0.57246  -0.54555  -0.52626  -0.50767  -0.47674
 Alpha  occ. eigenvalues --   -0.45736  -0.45028  -0.43812  -0.42835  -0.40961
 Alpha  occ. eigenvalues --   -0.39572  -0.36977  -0.26432
 Alpha virt. eigenvalues --    0.06194   0.07358   0.07726   0.09797   0.11390
 Alpha virt. eigenvalues --    0.12466   0.13355   0.14518   0.15495   0.16833
 Alpha virt. eigenvalues --    0.18222   0.18524   0.20769   0.23642   0.25899

 Mulliken charges:
               1
     1  O   -0.261571
     2  O   -0.331419
     3  C    0.011179
     4  C   -0.355839
     5  C   -0.340968
     6  C   -0.048027
     7  C   -0.029916
     8  H    0.126719
     9  H    0.129726
    10  H    0.121446
    11  H    0.124344
    12  H    0.121480
    13  H    0.125703
    14  H    0.106415
    15  H    0.135019
    16  H    0.113488
    17  H    0.252220
 Sum of Mulliken charges =  -0.00000

 Dipole moment (field-independent basis, Debye):
    X=              0.3375    Y=              1.3820    Z=             -0.6896  Tot=              1.5809
 Quadrupole moment (field-independent basis, Debye-Ang):
   XX=            -37.9654   YY=            -45.6006   ZZ=            -41.8796
   XY=             -2.2917   XZ=              6.2797   YZ=             -0.5977

  Exact polarizability:  90.960  -2.157  57.379   5.570  -0.124  60.876
 Approx polarizability:  92.663  -2.344  67.228   7.333   0.162  77.084

                      1                      2                      3
                      A                      A                      A
 Frequencies --     62.2722                80.2220               156.2351
 Red. masses --      3.1589                 2.3445                 3.2742
 Frc consts  --      0.0072                 0.0089                 0.0471
 IR Inten    --      2.2733                 4.9223                 0.0555

                      4                      5                      6
                      A                      A                      A
 Frequencies --    185.8674               211.4410               257.1154
 Red. masses --      1.1726                 1.0312                 1.1032
 Frc consts  --      0.0239                 0.0272                 0.0430
 IR Inten    --    132.8126                 2.9489                 3.1874

                      7                      8                      9
                      A                      A                      A
 Frequencies --    323.3737               338.2666               372.6953
 Red. masses --      2.9728                 2.8467                 3.1946
 Frc consts  --      0.1832                 0.1919                 0.2614
 IR Inten    --     10.3967                 0.4779                 8.5490

                     10                     11                     12
                      A                      A                      A
 Frequencies --    468.6030               480.5093               605.1535
 Red. masses --      3.2920                 2.6104                 4.3088
 Frc consts  --      0.4259                 0.3551                 0.9297
 IR Inten    --      1.8370                 4.6205                 5.4967

                     13                     14                     15
                      A                      A                      A
 Frequencies --    845.6312               872.2894               936.0699
 Red. masses --      2.1786                 2.2055                 1.1666
 Frc consts  --      0.9179                 0.9887                 0.6023
 IR Inten    --      5.5333                 4.1857                 3.1378

                     16                     17                     18
                      A                      A                      A
 Frequencies --    939.4182               951.5281               974.9996
 Red. masses --      1.1252                 1.4248                 2.1981
 Frc consts  --      0.5851                 0.7601                 1.2311
 IR Inten    --     47.0859                 2.0818                13.9133

                     19                     20                     21
                      A                      A                      A
 Frequencies --   1145.5156              1167.3758              1185.1193
 Red. masses --      2.0707                 2.0561                 2.0407
 Frc consts  --      1.6009                 1.6509                 1.6887
 IR Inten    --     20.4719                11.5667                26.7789

                     22                     23                     24
                      A                      A                      A
 Frequencies --   1201.4648              1217.4621              1253.8682
 Red. masses --      2.3031                 2.9189                 1.5475
 Frc consts  --      1.9587                 2.5491                 1.4334
 IR Inten    --    138.9002               497.0965                 1.3412

                     25                     26                     27
                      A                      A                      A
 Frequencies --   1332.5138              1358.7822              1374.0167
 Red. masses --      1.3124                 1.4282                 1.3002
 Frc consts  --      1.3730                 1.5536                 1.4463
 IR Inten    --     14.1248                38.1819                 1.2074

                     28                     29                     30
                      A                      A                      A
 Frequencies --   1397.3543              1408.4871              1421.3200
 Red. masses --      1.2684                 1.4578                 1.3416
 Frc consts  --      1.4592                 1.7039                 1.5968
 IR Inten    --      5.4989                24.6394                23.1295

                     31                     32                     33
                      A                      A                      A
 Frequencies --   1482.9083              1489.5967              1495.7739
 Red. masses --      1.0572                 1.0498                 1.0544
 Frc consts  --      1.3697                 1.3725                 1.3899
 IR Inten    --      0.8068                 0.1227                 6.4887

                     34                     35                     36
                      A                      A                      A
 Frequencies --   1513.4893              1805.5710              3015.3372
 Red. masses --      1.0582                 5.6381                 1.0837
 Frc consts  --      1.4282                10.8296                 5.8055
 IR Inten    --      5.5421                 0.0845                34.8284

                     37                     38                     39
                      A                      A                      A
 Frequencies --   3062.4564              3070.3153              3137.3205
 Red. masses --      1.0349                 1.0353                 1.1026
 Frc consts  --      5.7185                 5.7499                 6.3942
 IR Inten    --     10.8366                13.6019                 6.7049

                     40                     41                     42
                      A                      A                      A
 Frequencies --   3142.7186              3146.1891              3154.5839
 Red. masses --      1.1024                 1.1019                 1.1028
 Frc consts  --      6.4148                 6.4260                 6.4662
 IR Inten    --     14.0902                33.1669                18.6550

                     43                     44                     45
                      A                      A                      A
 Frequencies --   3157.5900              3193.8745              3911.6459
 Red. masses --      1.0905                 1.0936                 1.0667
 Frc consts  --      6.4057                 6.5728                 9.6166
 IR Inten    --     18.2485                10.7451               107.6081

 - Thermochemistry -
 -------------------
 Temperature   298.150 Kelvin.  Pressure   1.00000 Atm.
 Atom     1 has atomic number  8 and mass  15.99491

 Molecular mass:   102.06808 amu.
 Principal axes and moments of inertia in atomic units:
                           1         2         3
     Eigenvalues --   253.671791532.922021673.64950
           X            0.99998  -0.00184   0.00612
           Y            0.00189   0.99996  -0.00823
           Z           -0.00611   0.00824   0.99995
 This molecule is an asymmetric top.
 Rotational symmetry number  1.
 Rotational temperatures (Kelvin)      0.34144     0.05650     0.05175
 Rotational constants (GHZ):           7.11447     1.17732     1.07833
 Zero-point vibrational energy     384625.4 (Joules/Mol)
                                   91.92767 (Kcal/Mol)
 Warning -- explicit consideration of  12 degrees of freedom as
           vibrations may cause significant error
 Vibrational temperatures:     89.60   115.42   224.79   267.42   304.22
          (Kelvin)            369.93   465.26   486.69   536.23   674.22
                              691.35   870.68  1216.67  1255.03  1346.80
                             1351.61  1369.04  1402.81  1648.14  1679.59
                             1705.12  1728.64  1751.66  1804.04  1917.19
                             1954.98  1976.90  2010.48  2026.50  2044.96
                             2133.57  2143.20  2152.09  2177.57  2597.81
                             4338.40  4406.19  4417.50  4513.90  4521.67
                             4526.66  4538.74  4543.07  4595.27  5627.99

 Zero-point correction=                           0.146496 (Hartree/Particle)
 Thermal correction to Energy=                    0.155372
 Thermal correction to Enthalpy=                  0.156316
 Thermal correction to Gibbs Free Energy=         0.112949
 Sum of electronic and zero-point Energies=           -346.794290
 Sum of electronic and thermal Energies=              -346.785414
 Sum of electronic and thermal Enthalpies=            -346.784470
 Sum of electronic and thermal Free Energies=         -346.827837

                     E (Thermal)             CV                S
                      KCal/Mol        Cal/Mol-Kelvin    Cal/Mol-Kelvin
 Total                   97.497             30.736             91.275
 Electronic               0.000              0.000              0.000
 Translational            0.889              2.981             39.779
 Rotational               0.889              2.981             27.967
 Vibrational             95.720             24.775             23.529
 Vibration     1          0.597              1.972              4.384
 Vibration     2          0.600              1.963              3.885
 Vibration     3          0.620              1.896              2.595
 Vibration     4          0.632              1.859              2.269
 Vibration     5          0.643              1.823              2.031
 Vibration     6          0.667              1.751              1.681
 Vibration     7          0.708              1.629              1.293
 Vibration     8          0.719              1.599              1.220
 Vibration     9          0.744              1.528              1.069
 Vibration    10          0.826              1.320              0.741
 Vibration    11          0.837              1.293              0.709
 Vibration    12          0.964              1.021              0.441

                           ! Non-Optimized Parameters !
 Normal termination of Gaussian 16 at Thu Sep 26 07:34:49 2019.
