 Gaussian 16, Revision A.03,
 Gaussian 16:  EM64L-G16RevA.03 25-Dec-2016

 ----------------------------------------------------------------------
 #p m062x/cc-pVTZ opt=(calcfc,maxcycles=900,Tight) freq IOP(7/33=1,2/16
 =3) scf=(maxcycle=900)
 ----------------------------------------------------------------------

 ------------------------------
 Gaussian input prepared by ASE
 ------------------------------
 Symbolic Z-matrix:
 Charge =  0 Multiplicity = 1

 SCF Done:  E(RM062X) =  -346.908929905     A.U. after   13 cycles
 SCF Done:  E(RM062X) =  -346.925649655     A.U. after   14 cycles
 SCF Done:  E(RM062X) =  -346.879458416     A.U. after   13 cycles
 SCF Done:  E(RM062X) =  -346.927313240     A.U. after   14 cycles
 SCF Done:  E(RM062X) =  -346.931795171     A.U. after   12 cycles
 SCF Done:  E(RM062X) =  -346.928178058     A.U. after   13 cycles
 SCF Done:  E(RM062X) =  -346.934063390     A.U. after   13 cycles
 SCF Done:  E(RM062X) =  -346.934672396     A.U. after   13 cycles
 SCF Done:  E(RM062X) =  -346.935357435     A.U. after   11 cycles
 SCF Done:  E(RM062X) =  -346.935743233     A.U. after   10 cycles
 SCF Done:  E(RM062X) =  -346.937074637     A.U. after    7 cycles
 SCF Done:  E(RM062X) =  -346.937074662     A.U. after    7 cycles
 SCF Done:  E(RM062X) =  -346.937074664     A.U. after    7 cycles
 SCF Done:  E(RM062X) =  -346.937074662     A.U. after    5 cycles
 SCF Done:  E(RM062X) =  -346.937074662     A.U. after    4 cycles
 SCF Done:  E(RM062X) =  -346.937074662     A.U. after    5 cycles
 SCF Done:  E(RM062X) =  -346.937074662     A.U. after    5 cycles
 SCF Done:  E(RM062X) =  -346.937074662     A.U. after    3 cycles
 SCF Done:  E(RM062X) =  -346.937074662     A.U. after    3 cycles
 Optimization completed.
    -- Stationary point found.
 Normal termination of Gaussian 16 at Thu Sep 26 14:18:11 2019.

 ----------------------------------------------------------------------
 #P Geom=AllCheck Guess=TCheck SCRF=Check Test GenChk RM062X/CC-pVTZ Fr
 eq
 ----------------------------------------------------------------------

 Structure from the checkpoint file:  "/scratch/harms.n/gauss_scrdir/Gau-9452.chk"
 ------------------------------
 Gaussian input prepared by ASE
 ------------------------------
 Charge =  0 Multiplicity = 1

                         Standard orientation:
 ---------------------------------------------------------------------
 Center     Atomic      Atomic             Coordinates (Angstroms)
 Number     Number       Type             X           Y           Z
 ---------------------------------------------------------------------
      1          8           0       -0.359799   -1.329637   -0.002329
      2          8           0        1.473293    1.228159   -0.005685
      3          6           0       -1.303379   -0.253217    0.000333
      4          6           0       -1.232950    0.567289   -1.276624
      5          6           0       -1.230859    0.562965    1.279901
      6          6           0        0.980306   -1.152920   -0.000428
      7          6           0        1.802984   -0.106928   -0.000108
      8          1           0       -2.250404   -0.794658    0.000203
      9          1           0       -1.286827   -0.091344   -2.142818
     10          1           0       -2.081601    1.251227   -1.312095
     11          1           0       -0.318619    1.152341   -1.327639
     12          1           0       -0.317055    1.148918    1.329746
     13          1           0       -1.281328   -0.098586    2.144086
     14          1           0       -2.080299    1.245653    1.319984
     15          1           0        1.472962   -2.115738   -0.001182
     16          1           0        2.859829   -0.334277   -0.000864
     17          1           0        2.278773    1.745157    0.036241
 ---------------------------------------------------------------------

 SCF Done:  E(RM062X) =  -346.937074662     A.U. after    1 cycles

 The electronic state is 1-A.
 Alpha  occ. eigenvalues --  -19.65127 -19.63777 -10.58737 -10.58133 -10.58001
 Alpha  occ. eigenvalues --  -10.51402 -10.51386  -1.18339  -1.16848  -0.88804
 Alpha  occ. eigenvalues --   -0.83793  -0.77736  -0.71764  -0.64916  -0.60033
 Alpha  occ. eigenvalues --   -0.57383  -0.53946  -0.51527  -0.49989  -0.48612
 Alpha  occ. eigenvalues --   -0.47317  -0.43572  -0.43370  -0.42272  -0.40331
 Alpha  occ. eigenvalues --   -0.38515  -0.36985  -0.26107
 Alpha virt. eigenvalues --    0.04895   0.08158   0.09496   0.10220   0.12444
 Alpha virt. eigenvalues --    0.13138   0.13437   0.14760   0.16989   0.17307
 Alpha virt. eigenvalues --    0.19357   0.19648   0.20397   0.22708   0.27107

 Mulliken charges:
               1
     1  O   -0.245257
     2  O   -0.335946
     3  C    0.002356
     4  C   -0.378142
     5  C   -0.378656
     6  C   -0.061850
     7  C   -0.059505
     8  H    0.148471
     9  H    0.126550
    10  H    0.113803
    11  H    0.148478
    12  H    0.147416
    13  H    0.126827
    14  H    0.114169
    15  H    0.152893
    16  H    0.119524
    17  H    0.258870
 Sum of Mulliken charges =  -0.00000

 Dipole moment (field-independent basis, Debye):
    X=              1.4335    Y=              1.3129    Z=              0.0679  Tot=              1.9450
 Quadrupole moment (field-independent basis, Debye-Ang):
   XX=            -34.6729   YY=            -43.3476   ZZ=            -45.8569
   XY=              1.7672   XZ=              0.1724   YZ=              0.1408

  Exact polarizability:  76.462   2.161  66.927   0.067   0.059  57.347
 Approx polarizability:  85.767   7.900  85.324   0.095   0.059  65.913

                      1                      2                      3
                      A                      A                      A
 Frequencies --     35.5529                70.4249               166.6886
 Red. masses --      3.2694                 1.1805                 1.6692
 Frc consts  --      0.0024                 0.0034                 0.0273
 IR Inten    --     11.9505                86.8545                 2.5178

                      4                      5                      6
                      A                      A                      A
 Frequencies --    201.3046               220.7892               231.8737
 Red. masses --      2.0193                 1.3577                 1.8723
 Frc consts  --      0.0482                 0.0390                 0.0593
 IR Inten    --      1.1213                 2.1035                 1.1775

                      7                      8                      9
                      A                      A                      A
 Frequencies --    262.0230               367.1175               412.4774
 Red. masses --      2.6105                 2.3442                 3.1800
 Frc consts  --      0.1056                 0.1862                 0.3188
 IR Inten    --      1.1192                 0.9316                 6.6396

                     10                     11                     12
                      A                      A                      A
 Frequencies --    543.1902               547.9866               746.2354
 Red. masses --      2.4876                 4.5988                 1.3157
 Frc consts  --      0.4325                 0.8136                 0.4317
 IR Inten    --      1.6305                 5.0964                45.4888

                     13                     14                     15
                      A                      A                      A
 Frequencies --    780.3181               819.6976               915.6870
 Red. masses --      3.6384                 3.9353                 2.6555
 Frc consts  --      1.3053                 1.5579                 1.3119
 IR Inten    --     13.3261                36.1001                 2.1492

                     16                     17                     18
                      A                      A                      A
 Frequencies --    924.8423               939.3397               954.5687
 Red. masses --      1.2073                 1.2802                 1.2781
 Frc consts  --      0.6084                 0.6656                 0.6862
 IR Inten    --      1.1390                 0.5786                 0.5080

                     19                     20                     21
                      A                      A                      A
 Frequencies --   1023.5277              1152.8729              1176.4951
 Red. masses --      2.6699                 1.9305                 2.1908
 Frc consts  --      1.6480                 1.5117                 1.7866
 IR Inten    --     46.8598                31.4021                12.7046

                     22                     23                     24
                      A                      A                      A
 Frequencies --   1208.9284              1217.4544              1275.2441
 Red. masses --      2.0959                 2.9190                 1.3055
 Frc consts  --      1.8048                 2.5492                 1.2509
 IR Inten    --     73.9841               163.1230               101.8839

                     25                     26                     27
                      A                      A                      A
 Frequencies --   1378.3252              1387.4916              1408.1007
 Red. masses --      1.2542                 1.1988                 1.4103
 Frc consts  --      1.4038                 1.3598                 1.6475
 IR Inten    --      0.0226                43.0968                26.3348

                     28                     29                     30
                      A                      A                      A
 Frequencies --   1414.5990              1424.5639              1458.7839
 Red. masses --      1.2747                 1.2250                 1.3639
 Frc consts  --      1.5029                 1.4647                 1.7101
 IR Inten    --     54.4082                 4.3247                43.6415

                     31                     32                     33
                      A                      A                      A
 Frequencies --   1485.3824              1501.6045              1503.0102
 Red. masses --      1.0488                 1.0570                 1.0555
 Frc consts  --      1.3634                 1.4043                 1.4048
 IR Inten    --      0.1462                 2.6563                 0.0299

                     34                     35                     36
                      A                      A                      A
 Frequencies --   1519.7275              1803.6359              3070.7642
 Red. masses --      1.0647                 6.8916                 1.0378
 Frc consts  --      1.4488                13.2090                 5.7657
 IR Inten    --      0.7135                78.8144                22.8468

                     37                     38                     39
                      A                      A                      A
 Frequencies --   3073.0099              3080.2533              3136.9946
 Red. masses --      1.0474                 1.0759                 1.1014
 Frc consts  --      5.8278                 6.0142                 6.3860
 IR Inten    --      7.3590                38.3190                11.4831

                     40                     41                     42
                      A                      A                      A
 Frequencies --   3139.3296              3178.0154              3181.1251
 Red. masses --      1.1016                 1.0996                 1.0990
 Frc consts  --      6.3968                 6.5430                 6.5524
 IR Inten    --     24.8253                 0.0186                 6.5584

                     43                     44                     45
                      A                      A                      A
 Frequencies --   3203.4502              3225.0252              3923.8642
 Red. masses --      1.0853                 1.0956                 1.0669
 Frc consts  --      6.5619                 6.7137                 9.6788
 IR Inten    --      0.7438                17.2164               112.4041

 - Thermochemistry -
 -------------------
 Temperature   298.150 Kelvin.  Pressure   1.00000 Atm.
 Atom     1 has atomic number  8 and mass  15.99491

 Molecular mass:   102.06808 amu.
 Principal axes and moments of inertia in atomic units:
                           1         2         3
     Eigenvalues --   522.55288 831.30539 957.27743
           X            0.99891  -0.04675   0.00055
           Y            0.04675   0.99891   0.00139
           Z           -0.00062  -0.00136   1.00000
 This molecule is an asymmetric top.
 Rotational symmetry number  1.
 Warning -- assumption of classical behavior for rotation
           may cause significant error
 Rotational temperatures (Kelvin)      0.16575     0.10419     0.09048
 Rotational constants (GHZ):           3.45370     2.17097     1.88529
 Zero-point vibrational energy     386942.3 (Joules/Mol)
                                   92.48142 (Kcal/Mol)
 Warning -- explicit consideration of  11 degrees of freedom as
           vibrations may cause significant error
 Vibrational temperatures:     51.15   101.33   239.83   289.63   317.67
          (Kelvin)            333.61   376.99   528.20   593.46   781.53
                              788.43  1073.67  1122.70  1179.36  1317.47
                             1330.64  1351.50  1373.41  1472.63  1658.73
                             1692.71  1739.38  1751.65  1834.79  1983.10
                             1996.29  2025.94  2035.29  2049.63  2098.86
                             2137.13  2160.47  2162.50  2186.55  2595.03
                             4418.14  4421.38  4431.80  4513.44  4516.80
                             4572.46  4576.93  4609.05  4640.09  5645.57

 Zero-point correction=                           0.147379 (Hartree/Particle)
 Thermal correction to Energy=                    0.156202
 Thermal correction to Enthalpy=                  0.157146
 Thermal correction to Gibbs Free Energy=         0.113570
 Sum of electronic and zero-point Energies=           -346.789696
 Sum of electronic and thermal Energies=              -346.780872
 Sum of electronic and thermal Enthalpies=            -346.779928
 Sum of electronic and thermal Free Energies=         -346.823504

                     E (Thermal)             CV                S
                      KCal/Mol        Cal/Mol-Kelvin    Cal/Mol-Kelvin
 Total                   98.018             30.429             91.714
 Electronic               0.000              0.000              0.000
 Translational            0.889              2.981             39.779
 Rotational               0.889              2.981             27.522
 Vibrational             96.241             24.467             24.413
 Vibration     1          0.594              1.982              5.493
 Vibration     2          0.598              1.968              4.141
 Vibration     3          0.624              1.883              2.472
 Vibration     4          0.638              1.838              2.121
 Vibration     5          0.648              1.809              1.953
 Vibration     6          0.653              1.792              1.864
 Vibration     7          0.669              1.742              1.648
 Vibration     8          0.740              1.540              1.092
 Vibration     9          0.776              1.443              0.918
 Vibration    10          0.898              1.155              0.558
 Vibration    11          0.903              1.144              0.548

                           ! Non-Optimized Parameters !
 Normal termination of Gaussian 16 at Thu Sep 26 15:47:26 2019.
