 Gaussian 16, Revision A.03,
 Gaussian 16:  EM64L-G16RevA.03 25-Dec-2016

 ----------------------------------------------------------------------
 #p m062x/cc-pVTZ opt=(calcfc,maxcycles=900,Tight) freq IOP(7/33=1,2/16
 =3) scf=(maxcycle=900)
 ----------------------------------------------------------------------

 ------------------------------
 Gaussian input prepared by ASE
 ------------------------------
 Symbolic Z-matrix:
 Charge =  0 Multiplicity = 1

 SCF Done:  E(RM062X) =  -346.908193833     A.U. after   13 cycles
 SCF Done:  E(RM062X) =  -346.926450639     A.U. after   12 cycles
 SCF Done:  E(RM062X) =  -346.928088911     A.U. after   12 cycles
 SCF Done:  E(RM062X) =  -346.928942132     A.U. after   12 cycles
 SCF Done:  E(RM062X) =  -346.931751526     A.U. after   11 cycles
 SCF Done:  E(RM062X) =  -346.932573453     A.U. after   12 cycles
 SCF Done:  E(RM062X) =  -346.931956726     A.U. after   12 cycles
 SCF Done:  E(RM062X) =  -346.934158902     A.U. after   12 cycles
 SCF Done:  E(RM062X) =  -346.935242431     A.U. after   11 cycles
 SCF Done:  E(RM062X) =  -346.936148538     A.U. after   12 cycles
 SCF Done:  E(RM062X) =  -346.941389438     A.U. after    9 cycles
 SCF Done:  E(RM062X) =  -346.941391042     A.U. after   12 cycles
 SCF Done:  E(RM062X) =  -346.941408958     A.U. after   10 cycles
 SCF Done:  E(RM062X) =  -346.941426549     A.U. after   10 cycles
 SCF Done:  E(RM062X) =  -346.941427639     A.U. after   10 cycles
 SCF Done:  E(RM062X) =  -346.941428035     A.U. after    7 cycles
 SCF Done:  E(RM062X) =  -346.941428134     A.U. after    7 cycles
 SCF Done:  E(RM062X) =  -346.941428127     A.U. after    6 cycles
 SCF Done:  E(RM062X) =  -346.941428123     A.U. after    5 cycles
 Optimization completed.
    -- Stationary point found.
 Normal termination of Gaussian 16 at Thu Sep 26 11:31:08 2019.

 ----------------------------------------------------------------------
 #P Geom=AllCheck Guess=TCheck SCRF=Check Test GenChk RM062X/CC-pVTZ Fr
 eq
 ----------------------------------------------------------------------

 Structure from the checkpoint file:  "/scratch/harms.n/gauss_scrdir/Gau-5795.chk"
 ------------------------------
 Gaussian input prepared by ASE
 ------------------------------
 Charge =  0 Multiplicity = 1

                         Standard orientation:
 ---------------------------------------------------------------------
 Center     Atomic      Atomic             Coordinates (Angstroms)
 Number     Number       Type             X           Y           Z
 ---------------------------------------------------------------------
      1          8           0        0.088286    0.546348   -0.183603
      2          8           0       -2.498556    0.351054    0.846321
      3          6           0        1.370833   -0.065283   -0.309549
      4          6           0        1.416193   -1.367436    0.470705
      5          6           0        2.378683    0.946025    0.191860
      6          6           0       -0.913773   -0.094900   -0.839987
      7          6           0       -2.149918   -0.166421   -0.367472
      8          1           0        1.549698   -0.268790   -1.373347
      9          1           0        1.228972   -1.167237    1.526111
     10          1           0        0.655558   -2.060920    0.112890
     11          1           0        2.392651   -1.840946    0.369367
     12          1           0        2.179987    1.171732    1.239637
     13          1           0        2.308825    1.869723   -0.379642
     14          1           0        3.390202    0.550858    0.105152
     15          1           0       -0.677801   -0.522547   -1.808702
     16          1           0       -2.924874   -0.628983   -0.963276
     17          1           0       -3.433168    0.205983    0.996715
 ---------------------------------------------------------------------

 SCF Done:  E(RM062X) =  -346.941428123     A.U. after    1 cycles

 The electronic state is 1-A.
 Alpha  occ. eigenvalues --  -19.64156 -19.63265 -10.59039 -10.57932 -10.57059
 Alpha  occ. eigenvalues --  -10.52158 -10.52149  -1.18122  -1.16350  -0.89294
 Alpha  occ. eigenvalues --   -0.83075  -0.78234  -0.68644  -0.66274  -0.61659
 Alpha  occ. eigenvalues --   -0.56619  -0.54243  -0.52589  -0.50281  -0.46562
 Alpha  occ. eigenvalues --   -0.45749  -0.45020  -0.43094  -0.42781  -0.41845
 Alpha  occ. eigenvalues --   -0.38990  -0.36568  -0.26057
 Alpha virt. eigenvalues --    0.05736   0.07899   0.08489   0.10043   0.11603
 Alpha virt. eigenvalues --    0.12166   0.12999   0.14827   0.16414   0.17235
 Alpha virt. eigenvalues --    0.18015   0.18746   0.21253   0.23613   0.25900

 Mulliken charges:
               1
     1  O   -0.245593
     2  O   -0.309208
     3  C    0.006432
     4  C   -0.346214
     5  C   -0.340862
     6  C   -0.074125
     7  C   -0.014192
     8  H    0.122392
     9  H    0.130555
    10  H    0.123417
    11  H    0.117811
    12  H    0.125228
    13  H    0.123870
    14  H    0.104458
    15  H    0.127287
    16  H    0.099485
    17  H    0.249260
 Sum of Mulliken charges =  -0.00000

 Dipole moment (field-independent basis, Debye):
    X=             -0.7035    Y=             -1.5189    Z=             -0.8664  Tot=              1.8848
 Quadrupole moment (field-independent basis, Debye-Ang):
   XX=            -31.1061   YY=            -45.9192   ZZ=            -43.1238
   XY=              1.7296   XZ=             -0.6406   YZ=              0.6102

  Exact polarizability:  89.923   1.937  58.048  -2.963   1.700  60.925
 Approx polarizability:  93.436   1.211  68.256  -6.400   3.108  75.289

                      1                      2                      3
                      A                      A                      A
 Frequencies --     31.2587                87.1184               140.3325
 Red. masses --      3.9049                 3.2349                 1.1640
 Frc consts  --      0.0022                 0.0145                 0.0135
 IR Inten    --      1.3734                 6.0980               106.4591

                      4                      5                      6
                      A                      A                      A
 Frequencies --    170.5971               208.6434               246.5965
 Red. masses --      3.2205                 1.0397                 1.1765
 Frc consts  --      0.0552                 0.0267                 0.0422
 IR Inten    --      0.5911                 0.0629                 0.1755

                      7                      8                      9
                      A                      A                      A
 Frequencies --    299.5126               359.0306               427.4847
 Red. masses --      3.2522                 2.3122                 2.9279
 Frc consts  --      0.1719                 0.1756                 0.3152
 IR Inten    --      0.9704                 0.2731                 5.2890

                     10                     11                     12
                      A                      A                      A
 Frequencies --    487.9968               569.7846               718.3857
 Red. masses --      2.3724                 3.4082                 3.4288
 Frc consts  --      0.3329                 0.6519                 1.0426
 IR Inten    --      1.8692                 2.9027                19.0379

                     13                     14                     15
                      A                      A                      A
 Frequencies --    767.4433               872.2558               901.5626
 Red. masses --      1.4196                 2.5003                 1.2925
 Frc consts  --      0.4926                 1.1208                 0.6190
 IR Inten    --     49.3913                 9.2685                 6.4152

                     16                     17                     18
                      A                      A                      A
 Frequencies --    935.7450               951.2081               971.0513
 Red. masses --      1.1725                 1.4670                 2.3486
 Frc consts  --      0.6049                 0.7820                 1.3048
 IR Inten    --      0.4018                 3.0150                22.7608

                     19                     20                     21
                      A                      A                      A
 Frequencies --   1082.7994              1160.6168              1177.7212
 Red. masses --      2.8264                 2.0854                 2.5014
 Frc consts  --      1.9525                 1.6551                 2.0442
 IR Inten    --     20.8542                34.8386               212.5203

                     22                     23                     24
                      A                      A                      A
 Frequencies --   1185.2290              1214.9043              1268.4457
 Red. masses --      2.1028                 2.0482                 1.2551
 Frc consts  --      1.7404                 1.7811                 1.1898
 IR Inten    --     59.3060                88.8882                73.7524

                     25                     26                     27
                      A                      A                      A
 Frequencies --   1321.7564              1373.1682              1380.6294
 Red. masses --      1.3948                 1.2872                 1.2479
 Frc consts  --      1.4357                 1.4300                 1.4014
 IR Inten    --     83.7716                 1.8119                67.1386

                     28                     29                     30
                      A                      A                      A
 Frequencies --   1408.3930              1419.6451              1449.5965
 Red. masses --      1.4548                 1.3267                 1.4914
 Frc consts  --      1.7002                 1.5754                 1.8465
 IR Inten    --     26.1259                42.0245                51.4361

                     31                     32                     33
                      A                      A                      A
 Frequencies --   1482.0747              1489.8850              1495.0451
 Red. masses --      1.0573                 1.0505                 1.0555
 Frc consts  --      1.3683                 1.3739                 1.3900
 IR Inten    --      0.7406                 0.0454                 5.4178

                     34                     35                     36
                      A                      A                      A
 Frequencies --   1513.8644              1813.9769              3009.1290
 Red. masses --      1.0615                 6.1207                 1.0836
 Frc consts  --      1.4333                11.8662                 5.7808
 IR Inten    --      7.6552                28.7319                40.2837

                     37                     38                     39
                      A                      A                      A
 Frequencies --   3063.4535              3070.6829              3139.5701
 Red. masses --      1.0346                 1.0350                 1.1031
 Frc consts  --      5.7204                 5.7500                 6.4060
 IR Inten    --     11.2150                12.8327                 6.1741

                     40                     41                     42
                      A                      A                      A
 Frequencies --   3141.9001              3147.2641              3153.6746
 Red. masses --      1.1024                 1.1021                 1.1030
 Frc consts  --      6.4117                 6.4321                 6.4636
 IR Inten    --     14.4345                32.4157                18.0159

                     43                     44                     45
                      A                      A                      A
 Frequencies --   3173.0688              3218.5837              3929.3287
 Red. masses --      1.0871                 1.0974                 1.0669
 Frc consts  --      6.4491                 6.6979                 9.7058
 IR Inten    --      9.3552                14.5768               118.4365

 - Thermochemistry -
 -------------------
 Temperature   298.150 Kelvin.  Pressure   1.00000 Atm.
 Atom     1 has atomic number  8 and mass  15.99491

 Molecular mass:   102.06808 amu.
 Principal axes and moments of inertia in atomic units:
                           1         2         3
     Eigenvalues --   332.200461321.622531385.09673
           X            0.99989   0.00855   0.01186
           Y           -0.00873   0.99985   0.01486
           Z           -0.01173  -0.01496   0.99982
 This molecule is an asymmetric top.
 Rotational symmetry number  1.
 Rotational temperatures (Kelvin)      0.26073     0.06554     0.06253
 Rotational constants (GHZ):           5.43269     1.36555     1.30297
 Zero-point vibrational energy     385379.5 (Joules/Mol)
                                   92.10790 (Kcal/Mol)
 Warning -- explicit consideration of  11 degrees of freedom as
           vibrations may cause significant error
 Vibrational temperatures:     44.97   125.34   201.91   245.45   300.19
          (Kelvin)            354.80   430.93   516.56   615.06   702.12
                              819.79  1033.60  1104.18  1254.98  1297.15
                             1346.33  1368.58  1397.13  1557.91  1669.87
                             1694.48  1705.28  1747.98  1825.01  1901.71
                             1975.68  1986.42  2026.36  2042.55  2085.65
                             2132.37  2143.61  2151.04  2178.11  2609.91
                             4329.47  4407.63  4418.03  4517.14  4520.49
                             4528.21  4537.43  4565.34  4630.82  5653.43

 Zero-point correction=                           0.146783 (Hartree/Particle)
 Thermal correction to Energy=                    0.155643
 Thermal correction to Enthalpy=                  0.156587
 Thermal correction to Gibbs Free Energy=         0.112690
 Sum of electronic and zero-point Energies=           -346.794645
 Sum of electronic and thermal Energies=              -346.785785
 Sum of electronic and thermal Enthalpies=            -346.784841
 Sum of electronic and thermal Free Energies=         -346.828738

                     E (Thermal)             CV                S
                      KCal/Mol        Cal/Mol-Kelvin    Cal/Mol-Kelvin
 Total                   97.667             30.449             92.389
 Electronic               0.000              0.000              0.000
 Translational            0.889              2.981             39.779
 Rotational               0.889              2.981             27.899
 Vibrational             95.890             24.487             24.711
 Vibration     1          0.594              1.983              5.748
 Vibration     2          0.601              1.958              3.724
 Vibration     3          0.615              1.913              2.799
 Vibration     4          0.626              1.879              2.429
 Vibration     5          0.642              1.828              2.056
 Vibration     6          0.661              1.768              1.755
 Vibration     7          0.692              1.675              1.420
 Vibration     8          0.734              1.557              1.126
 Vibration     9          0.789              1.410              0.867
 Vibration    10          0.844              1.277              0.689
 Vibration    11          0.926              1.097              0.505

                           ! Non-Optimized Parameters !
 Normal termination of Gaussian 16 at Thu Sep 26 12:49:01 2019.
