 Gaussian 16, Revision A.03,
 Gaussian 16:  EM64L-G16RevA.03 25-Dec-2016

 ----------------------------------------------------------------------
 #p m062x/cc-pVTZ opt=(calcfc,maxcycles=900,Tight) freq IOP(7/33=1,2/16
 =3) scf=(maxcycle=900)
 ----------------------------------------------------------------------

 ------------------------------
 Gaussian input prepared by ASE
 ------------------------------
 Symbolic Z-matrix:
 Charge =  0 Multiplicity = 1

 SCF Done:  E(RM062X) =  -346.916485399     A.U. after   12 cycles
 SCF Done:  E(RM062X) =  -346.931028812     A.U. after   13 cycles
 SCF Done:  E(RM062X) =  -346.933473487     A.U. after   14 cycles
 SCF Done:  E(RM062X) =  -346.938278064     A.U. after   12 cycles
 SCF Done:  E(RM062X) =  -346.882081824     A.U. after   12 cycles
 SCF Done:  E(RM062X) =  -346.940155051     A.U. after   11 cycles
 SCF Done:  E(RM062X) =  -346.940666061     A.U. after   12 cycles
 SCF Done:  E(RM062X) =  -346.940945448     A.U. after   12 cycles
 SCF Done:  E(RM062X) =  -346.941301100     A.U. after   12 cycles
 SCF Done:  E(RM062X) =  -346.941393015     A.U. after   10 cycles
 SCF Done:  E(RM062X) =  -346.941424657     A.U. after   10 cycles
 SCF Done:  E(RM062X) =  -346.941427991     A.U. after    9 cycles
 SCF Done:  E(RM062X) =  -346.941428105     A.U. after    7 cycles
 SCF Done:  E(RM062X) =  -346.941428120     A.U. after    7 cycles
 SCF Done:  E(RM062X) =  -346.941428121     A.U. after    5 cycles
 SCF Done:  E(RM062X) =  -346.941428122     A.U. after    3 cycles
 SCF Done:  E(RM062X) =  -346.941428122     A.U. after    4 cycles
 Optimization completed.
    -- Stationary point found.
 Normal termination of Gaussian 16 at Thu Sep 26 06:46:00 2019.

 ----------------------------------------------------------------------
 #P Geom=AllCheck Guess=TCheck SCRF=Check Test GenChk RM062X/CC-pVTZ Fr
 eq
 ----------------------------------------------------------------------

 Structure from the checkpoint file:  "/scratch/harms.n/gauss_scrdir/Gau-41367.chk"
 ------------------------------
 Gaussian input prepared by ASE
 ------------------------------
 Charge =  0 Multiplicity = 1

                         Standard orientation:
 ---------------------------------------------------------------------
 Center     Atomic      Atomic             Coordinates (Angstroms)
 Number     Number       Type             X           Y           Z
 ---------------------------------------------------------------------
      1          8           0        0.088277   -0.546343    0.183637
      2          8           0       -2.498545   -0.351094   -0.846312
      3          6           0        1.370829    0.065288    0.309554
      4          6           0        1.416207    1.367414   -0.470745
      5          6           0        2.378672   -0.946034   -0.191839
      6          6           0       -0.913781    0.094940    0.839989
      7          6           0       -2.149922    0.166445    0.367457
      8          1           0        1.549706    0.268831    1.373340
      9          1           0        1.228941    1.167188   -1.526137
     10          1           0        0.655622    2.060952   -0.112931
     11          1           0        2.392693    1.840874   -0.369453
     12          1           0        2.179970   -1.171759   -1.239611
     13          1           0        2.308819   -1.869720    0.379680
     14          1           0        3.390191   -0.550863   -0.105146
     15          1           0       -0.677809    0.522638    1.808680
     16          1           0       -2.924879    0.629046    0.963228
     17          1           0       -3.433147   -0.206006   -0.996740
 ---------------------------------------------------------------------

 SCF Done:  E(RM062X) =  -346.941428122     A.U. after    1 cycles

 The electronic state is 1-A.
 Alpha  occ. eigenvalues --  -19.64155 -19.63265 -10.59039 -10.57932 -10.57059
 Alpha  occ. eigenvalues --  -10.52158 -10.52149  -1.18122  -1.16350  -0.89294
 Alpha  occ. eigenvalues --   -0.83075  -0.78234  -0.68644  -0.66274  -0.61659
 Alpha  occ. eigenvalues --   -0.56619  -0.54243  -0.52589  -0.50281  -0.46562
 Alpha  occ. eigenvalues --   -0.45749  -0.45020  -0.43094  -0.42781  -0.41845
 Alpha  occ. eigenvalues --   -0.38989  -0.36568  -0.26057
 Alpha virt. eigenvalues --    0.05736   0.07899   0.08489   0.10043   0.11603
 Alpha virt. eigenvalues --    0.12166   0.12999   0.14827   0.16414   0.17235
 Alpha virt. eigenvalues --    0.18015   0.18746   0.21254   0.23613   0.25900

 Mulliken charges:
               1
     1  O   -0.245594
     2  O   -0.309206
     3  C    0.006432
     4  C   -0.346218
     5  C   -0.340863
     6  C   -0.074125
     7  C   -0.014193
     8  H    0.122394
     9  H    0.130557
    10  H    0.123417
    11  H    0.117811
    12  H    0.125228
    13  H    0.123870
    14  H    0.104457
    15  H    0.127287
    16  H    0.099485
    17  H    0.249260
 Sum of Mulliken charges =  -0.00000

 Dipole moment (field-independent basis, Debye):
    X=             -0.7035    Y=              1.5190    Z=              0.8663  Tot=              1.8849
 Quadrupole moment (field-independent basis, Debye-Ang):
   XX=            -31.1062   YY=            -45.9191   ZZ=            -43.1238
   XY=             -1.7298   XZ=              0.6409   YZ=              0.6104

  Exact polarizability:  89.922  -1.937  58.048   2.963   1.700  60.925
 Approx polarizability:  93.436  -1.211  68.256   6.400   3.108  75.289

                      1                      2                      3
                      A                      A                      A
 Frequencies --     31.2541                87.1097               140.2610
 Red. masses --      3.9047                 3.2347                 1.1639
 Frc consts  --      0.0022                 0.0145                 0.0135
 IR Inten    --      1.3737                 6.1021               106.4560

                      4                      5                      6
                      A                      A                      A
 Frequencies --    170.5925               208.6185               246.5822
 Red. masses --      3.2212                 1.0398                 1.1765
 Frc consts  --      0.0552                 0.0267                 0.0421
 IR Inten    --      0.5907                 0.0629                 0.1754

                      7                      8                      9
                      A                      A                      A
 Frequencies --    299.5096               359.0336               427.4809
 Red. masses --      3.2524                 2.3122                 2.9279
 Frc consts  --      0.1719                 0.1756                 0.3152
 IR Inten    --      0.9703                 0.2732                 5.2892

                     10                     11                     12
                      A                      A                      A
 Frequencies --    487.9950               569.7852               718.3849
 Red. masses --      2.3723                 3.4081                 3.4288
 Frc consts  --      0.3329                 0.6519                 1.0426
 IR Inten    --      1.8692                 2.9022                19.0379

                     13                     14                     15
                      A                      A                      A
 Frequencies --    767.4389               872.2556               901.5586
 Red. masses --      1.4196                 2.5003                 1.2925
 Frc consts  --      0.4926                 1.1208                 0.6190
 IR Inten    --     49.3907                 9.2697                 6.4141

                     16                     17                     18
                      A                      A                      A
 Frequencies --    935.7390               951.2082               971.0491
 Red. masses --      1.1724                 1.4670                 2.3486
 Frc consts  --      0.6049                 0.7820                 1.3048
 IR Inten    --      0.4018                 3.0139                22.7617

                     19                     20                     21
                      A                      A                      A
 Frequencies --   1082.8013              1160.6148              1177.7201
 Red. masses --      2.8264                 2.0853                 2.5015
 Frc consts  --      1.9524                 1.6550                 2.0442
 IR Inten    --     20.8535                34.8239               212.5413

                     22                     23                     24
                      A                      A                      A
 Frequencies --   1185.2271              1214.9031              1268.4424
 Red. masses --      2.1028                 2.0482                 1.2551
 Frc consts  --      1.7404                 1.7811                 1.1898
 IR Inten    --     59.2966                88.8888                73.7522

                     25                     26                     27
                      A                      A                      A
 Frequencies --   1321.7540              1373.1641              1380.6260
 Red. masses --      1.3948                 1.2872                 1.2479
 Frc consts  --      1.4357                 1.4300                 1.4014
 IR Inten    --     83.7735                 1.8098                67.1441

                     28                     29                     30
                      A                      A                      A
 Frequencies --   1408.3899              1419.6429              1449.5962
 Red. masses --      1.4548                 1.3267                 1.4915
 Frc consts  --      1.7001                 1.5754                 1.8465
 IR Inten    --     26.1252                42.0225                51.4400

                     31                     32                     33
                      A                      A                      A
 Frequencies --   1482.0716              1489.8843              1495.0429
 Red. masses --      1.0573                 1.0505                 1.0555
 Frc consts  --      1.3683                 1.3739                 1.3900
 IR Inten    --      0.7405                 0.0455                 5.4177

                     34                     35                     36
                      A                      A                      A
 Frequencies --   1513.8650              1813.9715              3009.1452
 Red. masses --      1.0615                 6.1206                 1.0836
 Frc consts  --      1.4333                11.8661                 5.7809
 IR Inten    --      7.6557                28.7324                40.2833

                     37                     38                     39
                      A                      A                      A
 Frequencies --   3063.4626              3070.6910              3139.5815
 Red. masses --      1.0346                 1.0350                 1.1031
 Frc consts  --      5.7205                 5.7501                 6.4060
 IR Inten    --     11.2149                12.8322                 6.1715

                     40                     41                     42
                      A                      A                      A
 Frequencies --   3141.9063              3147.2729              3153.6854
 Red. masses --      1.1024                 1.1021                 1.1030
 Frc consts  --      6.4118                 6.4322                 6.4637
 IR Inten    --     14.4351                32.4190                18.0155

                     43                     44                     45
                      A                      A                      A
 Frequencies --   3173.0782              3218.5851              3929.3408
 Red. masses --      1.0871                 1.0974                 1.0669
 Frc consts  --      6.4491                 6.6979                 9.7058
 IR Inten    --      9.3543                14.5779               118.4363

 - Thermochemistry -
 -------------------
 Temperature   298.150 Kelvin.  Pressure   1.00000 Atm.
 Atom     1 has atomic number  8 and mass  15.99491

 Molecular mass:   102.06808 amu.
 Principal axes and moments of inertia in atomic units:
                           1         2         3
     Eigenvalues --   332.201321321.620261385.09373
           X            0.99989  -0.00855  -0.01186
           Y            0.00873   0.99985   0.01486
           Z            0.01173  -0.01496   0.99982
 This molecule is an asymmetric top.
 Rotational symmetry number  1.
 Rotational temperatures (Kelvin)      0.26073     0.06554     0.06253
 Rotational constants (GHZ):           5.43267     1.36555     1.30297
 Zero-point vibrational energy     385378.9 (Joules/Mol)
                                   92.10777 (Kcal/Mol)
 Warning -- explicit consideration of  11 degrees of freedom as
           vibrations may cause significant error
 Vibrational temperatures:     44.97   125.33   201.80   245.44   300.16
          (Kelvin)            354.78   430.93   516.57   615.05   702.12
                              819.79  1033.60  1104.17  1254.98  1297.14
                             1346.32  1368.58  1397.12  1557.91  1669.87
                             1694.48  1705.28  1747.97  1825.01  1901.71
                             1975.68  1986.41  2026.36  2042.55  2085.65
                             2132.37  2143.61  2151.03  2178.11  2609.90
                             4329.49  4407.64  4418.04  4517.16  4520.50
                             4528.22  4537.45  4565.35  4630.83  5653.44

 Zero-point correction=                           0.146783 (Hartree/Particle)
 Thermal correction to Energy=                    0.155643
 Thermal correction to Enthalpy=                  0.156587
 Thermal correction to Gibbs Free Energy=         0.112689
 Sum of electronic and zero-point Energies=           -346.794645
 Sum of electronic and thermal Energies=              -346.785785
 Sum of electronic and thermal Enthalpies=            -346.784841
 Sum of electronic and thermal Free Energies=         -346.828739

                     E (Thermal)             CV                S
                      KCal/Mol        Cal/Mol-Kelvin    Cal/Mol-Kelvin
 Total                   97.667             30.449             92.391
 Electronic               0.000              0.000              0.000
 Translational            0.889              2.981             39.779
 Rotational               0.889              2.981             27.899
 Vibrational             95.890             24.487             24.713
 Vibration     1          0.594              1.983              5.748
 Vibration     2          0.601              1.958              3.724
 Vibration     3          0.615              1.913              2.800
 Vibration     4          0.626              1.879              2.429
 Vibration     5          0.642              1.828              2.056
 Vibration     6          0.661              1.768              1.755
 Vibration     7          0.692              1.675              1.420
 Vibration     8          0.734              1.557              1.126
 Vibration     9          0.789              1.410              0.867
 Vibration    10          0.844              1.277              0.689
 Vibration    11          0.926              1.097              0.505

                           ! Non-Optimized Parameters !
 Normal termination of Gaussian 16 at Thu Sep 26 08:02:42 2019.
