 Gaussian 16, Revision A.03,
 Gaussian 16:  EM64L-G16RevA.03 25-Dec-2016

 ----------------------------------------------------------------------
 #p m062x/cc-pVTZ opt=(calcfc,maxcycles=900,Tight) freq IOP(7/33=1,2/16
 =3) scf=(maxcycle=900)
 ----------------------------------------------------------------------

 ------------------------------
 Gaussian input prepared by ASE
 ------------------------------
 Symbolic Z-matrix:
 Charge =  0 Multiplicity = 1

 SCF Done:  E(RM062X) =  -346.927770346     A.U. after   13 cycles
 SCF Done:  E(RM062X) =  -346.943238770     A.U. after   13 cycles
 SCF Done:  E(RM062X) =  -346.922809890     A.U. after   13 cycles
 SCF Done:  E(RM062X) =  -346.947221127     A.U. after   12 cycles
 SCF Done:  E(RM062X) =  -346.948490751     A.U. after   11 cycles
 SCF Done:  E(RM062X) =  -346.948661243     A.U. after   11 cycles
 SCF Done:  E(RM062X) =  -346.948895454     A.U. after   11 cycles
 SCF Done:  E(RM062X) =  -346.949074487     A.U. after   11 cycles
 SCF Done:  E(RM062X) =  -346.949286866     A.U. after   11 cycles
 SCF Done:  E(RM062X) =  -346.949457136     A.U. after   11 cycles
 SCF Done:  E(RM062X) =  -346.949535439     A.U. after    7 cycles
 SCF Done:  E(RM062X) =  -346.949535504     A.U. after    6 cycles
 SCF Done:  E(RM062X) =  -346.949535502     A.U. after    5 cycles
 SCF Done:  E(RM062X) =  -346.949535516     A.U. after    5 cycles
 SCF Done:  E(RM062X) =  -346.949535504     A.U. after    5 cycles
 SCF Done:  E(RM062X) =  -346.949535506     A.U. after    3 cycles
 SCF Done:  E(RM062X) =  -346.949535502     A.U. after    4 cycles
 SCF Done:  E(RM062X) =  -346.949535505     A.U. after    3 cycles
 SCF Done:  E(RM062X) =  -346.949535501     A.U. after    4 cycles
 Optimization completed.
    -- Stationary point found.
 Normal termination of Gaussian 16 at Sun Sep 29 17:36:28 2019.

 ----------------------------------------------------------------------
 #P Geom=AllCheck Guess=TCheck SCRF=Check Test GenChk RM062X/CC-pVTZ Fr
 eq
 ----------------------------------------------------------------------

 Structure from the checkpoint file:  "/scratch/harms.n/gauss_scrdir/Gau-1799.chk"
 ------------------------------
 Gaussian input prepared by ASE
 ------------------------------
 Charge =  0 Multiplicity = 1

                         Standard orientation:
 ---------------------------------------------------------------------
 Center     Atomic      Atomic             Coordinates (Angstroms)
 Number     Number       Type             X           Y           Z
 ---------------------------------------------------------------------
      1          8           0       -0.078764   -0.681121   -0.101287
      2          8           0        2.346380    0.324935   -0.925925
      3          6           0       -1.295941   -0.066420    0.336557
      4          6           0       -2.393937   -0.600826   -0.556673
      5          6           0       -1.174602    1.445415    0.275393
      6          6           0        0.969196   -0.562745    0.778091
      7          6           0        2.133192   -0.099109    0.344564
      8          1           0       -1.475692   -0.378801    1.372053
      9          1           0       -2.441718   -1.686449   -0.496205
     10          1           0       -3.357822   -0.186770   -0.263149
     11          1           0       -2.197100   -0.319668   -1.591716
     12          1           0       -1.019730    1.762574   -0.757128
     13          1           0       -0.332273    1.790063    0.874354
     14          1           0       -2.082460    1.918203    0.649444
     15          1           0        0.811040   -0.896294    1.795639
     16          1           0        3.006397   -0.044589    0.975939
     17          1           0        1.520988    0.193328   -1.409123
 ---------------------------------------------------------------------

 SCF Done:  E(RM062X) =  -346.949535501     A.U. after    1 cycles

 The electronic state is 1-A.
 Alpha  occ. eigenvalues --  -19.64449 -19.64208 -10.59928 -10.58483 -10.57298
 Alpha  occ. eigenvalues --  -10.53065 -10.52986  -1.19078  -1.16458  -0.89951
 Alpha  occ. eigenvalues --   -0.83090  -0.79072  -0.70572  -0.66670  -0.61272
 Alpha  occ. eigenvalues --   -0.58351  -0.53927  -0.52658  -0.50918  -0.46962
 Alpha  occ. eigenvalues --   -0.46169  -0.45783  -0.44998  -0.43892  -0.42445
 Alpha  occ. eigenvalues --   -0.39942  -0.36880  -0.27172
 Alpha virt. eigenvalues --    0.06206   0.07943   0.08233   0.10142   0.11279
 Alpha virt. eigenvalues --    0.11472   0.12453   0.14142   0.15717   0.16436
 Alpha virt. eigenvalues --    0.17801   0.18389   0.20272   0.22690   0.24780

 Mulliken charges:
               1
     1  O   -0.297768
     2  O   -0.350756
     3  C    0.022784
     4  C   -0.337691
     5  C   -0.371522
     6  C   -0.097201
     7  C    0.011917
     8  H    0.129572
     9  H    0.126986
    10  H    0.109560
    11  H    0.119402
    12  H    0.125992
    13  H    0.139476
    14  H    0.126750
    15  H    0.122638
    16  H    0.153536
    17  H    0.266324
 Sum of Mulliken charges =  -0.00000

 Dipole moment (field-independent basis, Debye):
    X=             -1.8741    Y=              0.3532    Z=              1.0680  Tot=              2.1858
 Quadrupole moment (field-independent basis, Debye-Ang):
   XX=            -44.5987   YY=            -45.9390   ZZ=            -41.3015
   XY=             -0.9255   XZ=              2.6562   YZ=             -0.7816

  Exact polarizability:  83.837   3.021  58.265  -0.375  -2.597  61.811
 Approx polarizability:  89.838   5.122  69.371  -4.053  -3.953  77.374

                      1                      2                      3
                      A                      A                      A
 Frequencies --     31.2276                79.8421               191.8074
 Red. masses --      3.8033                 3.4959                 2.7332
 Frc consts  --      0.0022                 0.0131                 0.0592
 IR Inten    --      0.6819                 0.4955                 2.1515

                      4                      5                      6
                      A                      A                      A
 Frequencies --    212.6250               244.5677               303.9423
 Red. masses --      1.0978                 1.1646                 3.0879
 Frc consts  --      0.0292                 0.0410                 0.1681
 IR Inten    --      0.3971                 0.8338                 5.9609

                      7                      8                      9
                      A                      A                      A
 Frequencies --    355.7871               407.3936               487.2359
 Red. masses --      2.2545                 2.3839                 2.3681
 Frc consts  --      0.1681                 0.2331                 0.3312
 IR Inten    --      0.9334                 5.3536                 0.9154

                     10                     11                     12
                      A                      A                      A
 Frequencies --    506.4160               592.0150               734.5597
 Red. masses --      1.2876                 2.8743                 2.8529
 Frc consts  --      0.1946                 0.5935                 0.9070
 IR Inten    --     89.6180                19.3993                21.6892

                     13                     14                     15
                      A                      A                      A
 Frequencies --    785.8714               870.8244               926.4536
 Red. masses --      1.5202                 2.5549                 1.2980
 Frc consts  --      0.5532                 1.1415                 0.6564
 IR Inten    --     32.3502                 2.5308                 6.6738

                     16                     17                     18
                      A                      A                      A
 Frequencies --    935.0016               949.3081               968.1200
 Red. masses --      1.1754                 1.5096                 2.2276
 Frc consts  --      0.6054                 0.8015                 1.2301
 IR Inten    --      0.3433                 1.5966                 9.3517

                     19                     20                     21
                      A                      A                      A
 Frequencies --   1087.3947              1151.9664              1167.9884
 Red. masses --      3.0660                 2.3619                 2.1575
 Frc consts  --      2.1360                 1.8467                 1.7341
 IR Inten    --     63.3750               173.3895               106.6834

                     22                     23                     24
                      A                      A                      A
 Frequencies --   1181.6149              1206.5359              1248.2317
 Red. masses --      2.1479                 1.7995                 1.3901
 Frc consts  --      1.7669                 1.5434                 1.2761
 IR Inten    --     31.3153                37.5678                64.1095

                     25                     26                     27
                      A                      A                      A
 Frequencies --   1368.5551              1371.0846              1375.9313
 Red. masses --      1.4938                 1.2891                 1.2531
 Frc consts  --      1.6484                 1.4277                 1.3978
 IR Inten    --      0.2276                 5.2848                49.9503

                     28                     29                     30
                      A                      A                      A
 Frequencies --   1407.4645              1418.1529              1434.1510
 Red. masses --      1.4554                 1.3121                 1.3970
 Frc consts  --      1.6987                 1.5547                 1.6929
 IR Inten    --     25.9482                34.6929                49.6535

                     31                     32                     33
                      A                      A                      A
 Frequencies --   1483.3878              1488.5426              1495.8051
 Red. masses --      1.0588                 1.0484                 1.0557
 Frc consts  --      1.3727                 1.3687                 1.3917
 IR Inten    --      1.0720                 0.0418                 5.5960

                     34                     35                     36
                      A                      A                      A
 Frequencies --   1512.5867              1775.9237              3023.5575
 Red. masses --      1.0592                 6.2754                 1.0841
 Frc consts  --      1.4278                11.6611                 5.8393
 IR Inten    --      8.6235                57.9734                28.6662

                     37                     38                     39
                      A                      A                      A
 Frequencies --   3061.6626              3069.5317              3134.7173
 Red. masses --      1.0355                 1.0356                 1.1020
 Frc consts  --      5.7190                 5.7487                 6.3799
 IR Inten    --     10.2350                13.0542                 7.8756

                     40                     41                     42
                      A                      A                      A
 Frequencies --   3143.3667              3145.7054              3155.2579
 Red. masses --      1.1018                 1.1020                 1.1030
 Frc consts  --      6.4144                 6.4252                 6.4701
 IR Inten    --     18.5962                24.4829                16.1216

                     43                     44                     45
                      A                      A                      A
 Frequencies --   3202.1698              3255.4361              3819.3836
 Red. masses --      1.0896                 1.0984                 1.0645
 Frc consts  --      6.5826                 6.8585                 9.1488
 IR Inten    --      8.8353                 7.3440                51.7125

 - Thermochemistry -
 -------------------
 Temperature   298.150 Kelvin.  Pressure   1.00000 Atm.
 Atom     1 has atomic number  8 and mass  15.99491

 Molecular mass:   102.06808 amu.
 Principal axes and moments of inertia in atomic units:
                           1         2         3
     Eigenvalues --   348.914611222.448791277.15152
           X            0.99982  -0.00501   0.01839
           Y            0.00450   0.99960   0.02776
           Z           -0.01852  -0.02767   0.99945
 This molecule is an asymmetric top.
 Rotational symmetry number  1.
 Rotational temperatures (Kelvin)      0.24824     0.07085     0.06782
 Rotational constants (GHZ):           5.17244     1.47633     1.41310
 Zero-point vibrational energy     387405.3 (Joules/Mol)
                                   92.59208 (Kcal/Mol)
 Warning -- explicit consideration of  11 degrees of freedom as
           vibrations may cause significant error
 Vibrational temperatures:     44.93   114.87   275.97   305.92   351.88
          (Kelvin)            437.31   511.90   586.15   701.02   728.62
                              851.78  1056.87  1130.69  1252.92  1332.96
                             1345.26  1365.84  1392.91  1564.52  1657.42
                             1680.47  1700.08  1735.94  1795.93  1969.05
                             1972.68  1979.66  2025.03  2040.41  2063.42
                             2134.26  2141.68  2152.13  2176.27  2555.16
                             4350.22  4405.05  4416.37  4510.16  4522.60
                             4525.97  4539.71  4607.21  4683.85  5495.24

 Zero-point correction=                           0.147555 (Hartree/Particle)
 Thermal correction to Energy=                    0.155941
 Thermal correction to Enthalpy=                  0.156885
 Thermal correction to Gibbs Free Energy=         0.114105
 Sum of electronic and zero-point Energies=           -346.801981
 Sum of electronic and thermal Energies=              -346.793594
 Sum of electronic and thermal Enthalpies=            -346.792650
 Sum of electronic and thermal Free Energies=         -346.835430

                     E (Thermal)             CV                S
                      KCal/Mol        Cal/Mol-Kelvin    Cal/Mol-Kelvin
 Total                   97.854             29.677             90.038
 Electronic               0.000              0.000              0.000
 Translational            0.889              2.981             39.779
 Rotational               0.889              2.981             27.790
 Vibrational             96.077             23.715             22.469
 Vibration     1          0.594              1.983              5.750
 Vibration     2          0.600              1.963              3.895
 Vibration     3          0.634              1.851              2.210
 Vibration     4          0.644              1.822              2.021
 Vibration     5          0.660              1.772              1.769
 Vibration     6          0.695              1.666              1.395
 Vibration     7          0.731              1.563              1.140
 Vibration     8          0.772              1.454              0.936
 Vibration     9          0.843              1.278              0.691
 Vibration    10          0.862              1.236              0.642
 Vibration    11          0.949              1.049              0.464

                           ! Non-Optimized Parameters !
 Normal termination of Gaussian 16 at Sun Sep 29 19:09:53 2019.
