 Gaussian 16, Revision A.03,
 Gaussian 16:  EM64L-G16RevA.03 25-Dec-2016

 ----------------------------------------------------------------------
 #p m062x/cc-pVTZ opt=(calcfc,maxcycles=900,Tight) freq IOP(7/33=1,2/16
 =3) scf=(maxcycle=900)
 ----------------------------------------------------------------------

 ------------------------------
 Gaussian input prepared by ASE
 ------------------------------
 Symbolic Z-matrix:
 Charge =  0 Multiplicity = 1

 SCF Done:  E(RM062X) =  -276.322829368     A.U. after   11 cycles
 SCF Done:  E(RM062X) =  -276.334504118     A.U. after   10 cycles
 SCF Done:  E(RM062X) =  -276.337994131     A.U. after   11 cycles
 SCF Done:  E(RM062X) =  -276.335901784     A.U. after   12 cycles
 SCF Done:  E(RM062X) =  -276.340046918     A.U. after   10 cycles
 SCF Done:  E(RM062X) =  -276.339987183     A.U. after    9 cycles
 SCF Done:  E(RM062X) =  -276.340140076     A.U. after    9 cycles
 SCF Done:  E(RM062X) =  -276.340141618     A.U. after    6 cycles
 SCF Done:  E(RM062X) =  -276.340142204     A.U. after    5 cycles
 SCF Done:  E(RM062X) =  -276.340142484     A.U. after    5 cycles
 SCF Done:  E(RM062X) =  -276.340142517     A.U. after    5 cycles
 SCF Done:  E(RM062X) =  -276.340142517     A.U. after    4 cycles
 SCF Done:  E(RM062X) =  -276.340142517     A.U. after    4 cycles
 SCF Done:  E(RM062X) =  -276.340142517     A.U. after    4 cycles
 Optimization completed.
    -- Stationary point found.
 Normal termination of Gaussian 16 at Sun Sep 29 01:12:34 2019.

 ----------------------------------------------------------------------
 #P Geom=AllCheck Guess=TCheck SCRF=Check Test GenChk RM062X/CC-pVTZ Fr
 eq
 ----------------------------------------------------------------------

 Structure from the checkpoint file:  "/scratch/harms.n/gauss_scrdir/Gau-39334.chk"
 ------------------------------
 Gaussian input prepared by ASE
 ------------------------------
 Charge =  0 Multiplicity = 1

                         Standard orientation:
 ---------------------------------------------------------------------
 Center     Atomic      Atomic             Coordinates (Angstroms)
 Number     Number       Type             X           Y           Z
 ---------------------------------------------------------------------
      1          6           0       -1.170465    0.676261   -0.534302
      2          6           0        0.000001    1.500949   -0.000001
      3          6           0        1.170468    0.676264    0.534301
      4          6           0       -1.753772   -0.300598    0.480754
      5          6           0        1.753769   -0.300602   -0.480752
      6          6           0       -2.997693   -1.005449   -0.045279
      7          6           0        2.997693   -1.005449    0.045279
      8          1           0       -1.993576    0.238828    1.401673
      9          1           0       -1.001965   -1.046425    0.749918
     10          1           0       -0.862173    0.123453   -1.426220
     11          1           0       -1.960265    1.357612   -0.861844
     12          1           0       -0.364235    2.155723    0.796135
     13          1           0        0.364235    2.155723   -0.796138
     14          1           0        0.862179    0.123461    1.426224
     15          1           0        1.960270    1.357616    0.861836
     16          1           0        1.001960   -1.046429   -0.749908
     17          1           0        1.993569    0.238818   -1.401676
     18          1           0       -3.780552   -0.284294   -0.284482
     19          1           0       -2.770545   -1.559583   -0.957453
     20          1           0       -3.400826   -1.709441    0.682027
     21          1           0        2.770548   -1.559577    0.957458
     22          1           0        3.780552   -0.284292    0.284475
     23          1           0        3.400823   -1.709447   -0.682022
 ---------------------------------------------------------------------

 SCF Done:  E(RM062X) =  -276.340142517     A.U. after    1 cycles

 The electronic state is 1-A.
 Alpha  occ. eigenvalues --  -10.52633 -10.52633 -10.52479 -10.52388 -10.52380
 Alpha  occ. eigenvalues --  -10.51966 -10.51966  -0.91363  -0.87535  -0.82639
 Alpha  occ. eigenvalues --   -0.76227  -0.70498  -0.67451  -0.63043  -0.54627
 Alpha  occ. eigenvalues --   -0.53628  -0.49946  -0.49101  -0.48715  -0.47301
 Alpha  occ. eigenvalues --   -0.43269  -0.43024  -0.42582  -0.40737  -0.39094
 Alpha  occ. eigenvalues --   -0.38819  -0.37001  -0.36699  -0.36377
 Alpha virt. eigenvalues --    0.06473   0.08372   0.08431   0.08997   0.11216
 Alpha virt. eigenvalues --    0.12115   0.13215   0.14286   0.15393   0.15750
 Alpha virt. eigenvalues --    0.15865   0.16691   0.16800   0.18437   0.18790

 Mulliken charges:
               1
     1  C   -0.280319
     2  C   -0.295322
     3  C   -0.280319
     4  C   -0.247065
     5  C   -0.247064
     6  C   -0.354416
     7  C   -0.354417
     8  H    0.133049
     9  H    0.132133
    10  H    0.147343
    11  H    0.142278
    12  H    0.140610
    13  H    0.140610
    14  H    0.147343
    15  H    0.142278
    16  H    0.132133
    17  H    0.133049
    18  H    0.110186
    19  H    0.109958
    20  H    0.113904
    21  H    0.109958
    22  H    0.110186
    23  H    0.113904
 Sum of Mulliken charges =   0.00000

 Dipole moment (field-independent basis, Debye):
    X=             -0.0000    Y=              0.0463    Z=             -0.0000  Tot=              0.0463
 Quadrupole moment (field-independent basis, Debye-Ang):
   XX=            -49.4666   YY=            -48.6617   ZZ=            -48.8788
   XY=             -0.0000   XZ=             -0.6364   YZ=             -0.0000

  Exact polarizability:  97.033   0.000  81.962   0.886   0.000  76.516
 Approx polarizability:  98.060   0.000  96.910   0.154   0.000  97.232

                      1                      2                      3
                      A                      A                      A
 Frequencies --     60.1733                78.5397               110.1862
 Red. masses --      3.0096                 1.6971                 1.6049
 Frc consts  --      0.0064                 0.0062                 0.0115
 IR Inten    --      0.0026                 0.0018                 0.0069

                      4                      5                      6
                      A                      A                      A
 Frequencies --    204.6279               206.9229               246.8724
 Red. masses --      2.1234                 2.0851                 1.1948
 Frc consts  --      0.0524                 0.0526                 0.0429
 IR Inten    --      0.0781                 0.0040                 0.0176

                      7                      8                      9
                      A                      A                      A
 Frequencies --    257.1590               296.7489               310.7797
 Red. masses --      1.2381                 1.7470                 2.5353
 Frc consts  --      0.0482                 0.0906                 0.1443
 IR Inten    --      0.0006                 0.0802                 0.0010

                     10                     11                     12
                      A                      A                      A
 Frequencies --    428.4474               527.4956               722.4426
 Red. masses --      2.5901                 2.3626                 1.1274
 Frc consts  --      0.2801                 0.3873                 0.3467
 IR Inten    --      0.0621                 0.4674                 5.8455

                     13                     14                     15
                      A                      A                      A
 Frequencies --    751.3970               794.6183               847.8597
 Red. masses --      1.1222                 1.2690                 2.2620
 Frc consts  --      0.3733                 0.4721                 0.9581
 IR Inten    --      2.2843                 0.0381                 0.1340

                     16                     17                     18
                      A                      A                      A
 Frequencies --    882.3131               894.0454               947.3613
 Red. masses --      1.5844                 1.3447                 1.2530
 Frc consts  --      0.7267                 0.6333                 0.6626
 IR Inten    --      0.6387                 0.0370                 3.5260

                     19                     20                     21
                      A                      A                      A
 Frequencies --    970.5005              1050.7154              1058.0509
 Red. masses --      1.7598                 2.4027                 1.3087
 Frc consts  --      0.9766                 1.5629                 0.8632
 IR Inten    --      2.0098                 1.1506                 0.0913

                     22                     23                     24
                      A                      A                      A
 Frequencies --   1066.6011              1072.6552              1123.0214
 Red. masses --      1.4267                 2.3780                 2.1403
 Frc consts  --      0.9563                 1.6121                 1.5904
 IR Inten    --      0.2969                 0.0050                 0.3372

                     25                     26                     27
                      A                      A                      A
 Frequencies --   1168.4328              1176.1458              1249.0887
 Red. masses --      1.9817                 2.1830                 1.4356
 Frc consts  --      1.5940                 1.7792                 1.3197
 IR Inten    --      0.8029                 0.6240                 0.0692

                     28                     29                     30
                      A                      A                      A
 Frequencies --   1257.9111              1305.2209              1314.4375
 Red. masses --      1.4023                 1.2635                 1.3126
 Frc consts  --      1.3073                 1.2682                 1.3361
 IR Inten    --      0.1423                 2.0223                 1.5376

                     31                     32                     33
                      A                      A                      A
 Frequencies --   1329.6196              1332.0039              1347.1170
 Red. masses --      1.1580                 1.1240                 1.1894
 Frc consts  --      1.2062                 1.1750                 1.2717
 IR Inten    --      0.2632                 0.0002                 1.2978

                     34                     35                     36
                      A                      A                      A
 Frequencies --   1392.2493              1400.5746              1410.9994
 Red. masses --      1.4849                 1.5850                 1.5740
 Frc consts  --      1.6959                 1.8318                 1.8463
 IR Inten    --      2.9322                 0.6460                 0.3537

                     37                     38                     39
                      A                      A                      A
 Frequencies --   1412.9861              1414.1871              1485.0767
 Red. masses --      1.2715                 1.2867                 1.0712
 Frc consts  --      1.4957                 1.5161                 1.3919
 IR Inten    --      4.6366                 0.4411                 2.2886

                     40                     41                     42
                      A                      A                      A
 Frequencies --   1491.7256              1495.1167              1498.3332
 Red. masses --      1.0601                 1.0700                 1.0797
 Frc consts  --      1.3899                 1.4092                 1.4282
 IR Inten    --      0.1737                 2.7391                 5.1693

                     43                     44                     45
                      A                      A                      A
 Frequencies --   1503.2993              1504.0797              1504.2167
 Red. masses --      1.0642                 1.0417                 1.0524
 Frc consts  --      1.4170                 1.3885                 1.4030
 IR Inten    --      2.4849                 7.7623                 6.2654

                     46                     47                     48
                      A                      A                      A
 Frequencies --   1511.0789              1516.4786              3039.6525
 Red. masses --      1.0745                 1.0939                 1.0602
 Frc consts  --      1.4456                 1.4821                 5.7716
 IR Inten    --     12.3971                 1.0559                 0.1682

                     49                     50                     51
                      A                      A                      A
 Frequencies --   3041.4026              3045.7959              3051.3490
 Red. masses --      1.0603                 1.0631                 1.0595
 Frc consts  --      5.7785                 5.8104                 5.8120
 IR Inten    --      8.3585                11.6944                10.2669

                     52                     53                     54
                      A                      A                      A
 Frequencies --   3051.6600              3057.1156              3057.2555
 Red. masses --      1.0613                 1.0389                 1.0376
 Frc consts  --      5.8229                 5.7205                 5.7143
 IR Inten    --     48.4238                82.1068                 6.2100

                     55                     56                     57
                      A                      A                      A
 Frequencies --   3068.3647              3070.3478              3082.2409
 Red. masses --      1.0975                 1.0987                 1.0994
 Frc consts  --      6.0880                 6.1026                 6.1538
 IR Inten    --      4.6548                 1.3272                22.2396

                     58                     59                     60
                      A                      A                      A
 Frequencies --   3093.6774              3094.4658              3123.6651
 Red. masses --      1.1042                 1.1032                 1.1026
 Frc consts  --      6.2267                 6.2242                 6.3389
 IR Inten    --     62.1874                33.8353                53.4944

                     61                     62                     63
                      A                      A                      A
 Frequencies --   3124.0910              3132.6268              3132.6484
 Red. masses --      1.1026                 1.1016                 1.1016
 Frc consts  --      6.3405                 6.3692                 6.3693
 IR Inten    --     40.1843                34.2614                25.4558

 - Thermochemistry -
 -------------------
 Temperature   298.150 Kelvin.  Pressure   1.00000 Atm.
 Atom     1 has atomic number  6 and mass  12.00000

 Molecular mass:   100.12520 amu.
 Principal axes and moments of inertia in atomic units:
                           1         2         3
     Eigenvalues --   422.004031560.084171786.66434
           X            1.00000   0.00000   0.00256
           Y           -0.00000   1.00000  -0.00000
           Z           -0.00256   0.00000   1.00000
 This molecule is an asymmetric top.
 Rotational symmetry number  1.
 Rotational temperatures (Kelvin)      0.20524     0.05552     0.04848
 Rotational constants (GHZ):           4.27660     1.15682     1.01012
 Zero-point vibrational energy     575381.5 (Joules/Mol)
                                  137.51948 (Kcal/Mol)
 Warning -- explicit consideration of  11 degrees of freedom as
           vibrations may cause significant error
 Vibrational temperatures:     86.58   113.00   158.53   294.41   297.72
          (Kelvin)            355.19   369.99   426.96   447.14   616.44
                              758.95  1039.43  1081.09  1143.28  1219.88
                             1269.45  1286.33  1363.04  1396.33  1511.75
                             1522.30  1534.60  1543.31  1615.78  1681.11
                             1692.21  1797.16  1809.85  1877.92  1891.18
                             1913.03  1916.46  1938.20  2003.14  2015.11
                             2030.11  2032.97  2034.70  2136.69  2146.26
                             2151.14  2155.77  2162.91  2164.04  2164.23
                             2174.11  2181.87  4373.38  4375.90  4382.22
                             4390.21  4390.66  4398.51  4398.71  4414.69
                             4417.55  4434.66  4451.11  4452.25  4494.26
                             4494.87  4507.15  4507.18

 Zero-point correction=                           0.219151 (Hartree/Particle)
 Thermal correction to Energy=                    0.228555
 Thermal correction to Enthalpy=                  0.229499
 Thermal correction to Gibbs Free Energy=         0.184828
 Sum of electronic and zero-point Energies=           -276.120991
 Sum of electronic and thermal Energies=              -276.111587
 Sum of electronic and thermal Enthalpies=            -276.110643
 Sum of electronic and thermal Free Energies=         -276.155314

                     E (Thermal)             CV                S
                      KCal/Mol        Cal/Mol-Kelvin    Cal/Mol-Kelvin
 Total                  143.420             33.773             94.018
 Electronic               0.000              0.000              0.000
 Translational            0.889              2.981             39.722
 Rotational               0.889              2.981             28.555
 Vibrational            141.643             27.811             25.741
 Vibration     1          0.597              1.973              4.451
 Vibration     2          0.600              1.964              3.927
 Vibration     3          0.606              1.941              3.266
 Vibration     4          0.640              1.833              2.091
 Vibration     5          0.641              1.830              2.071
 Vibration     6          0.661              1.768              1.753
 Vibration     7          0.667              1.751              1.681
 Vibration     8          0.690              1.680              1.435
 Vibration     9          0.700              1.653              1.358
 Vibration    10          0.790              1.408              0.864
 Vibration    11          0.882              1.189              0.593

 Optimization completed.
    -- Stationary point found.
 Normal termination of Gaussian 16 at Sun Sep 29 04:50:52 2019.
