 Gaussian 16, Revision A.03,
 Gaussian 16:  EM64L-G16RevA.03 25-Dec-2016

 ----------------------------------------------------------------------
 #p m062x/cc-pVTZ opt=(calcfc,maxcycles=900,Tight) freq IOP(7/33=1,2/16
 =3) scf=(maxcycle=900)
 ----------------------------------------------------------------------

 ------------------------------
 Gaussian input prepared by ASE
 ------------------------------
 Symbolic Z-matrix:
 Charge =  0 Multiplicity = 1

 SCF Done:  E(RM062X) =  -276.307714983     A.U. after   11 cycles
 SCF Done:  E(RM062X) =  -276.327131285     A.U. after   11 cycles
 SCF Done:  E(RM062X) =  -276.326158380     A.U. after   10 cycles
 SCF Done:  E(RM062X) =  -276.333058371     A.U. after   10 cycles
 SCF Done:  E(RM062X) =  -276.338096708     A.U. after   12 cycles
 SCF Done:  E(RM062X) =  -276.338964068     A.U. after    9 cycles
 SCF Done:  E(RM062X) =  -276.339638566     A.U. after    9 cycles
 SCF Done:  E(RM062X) =  -276.339807710     A.U. after    9 cycles
 SCF Done:  E(RM062X) =  -276.339071161     A.U. after   10 cycles
 SCF Done:  E(RM062X) =  -276.339901744     A.U. after    8 cycles
 SCF Done:  E(RM062X) =  -276.339927957     A.U. after    8 cycles
 SCF Done:  E(RM062X) =  -276.339978496     A.U. after    8 cycles
 SCF Done:  E(RM062X) =  -276.340019756     A.U. after    8 cycles
 SCF Done:  E(RM062X) =  -276.340029346     A.U. after    8 cycles
 SCF Done:  E(RM062X) =  -276.340031196     A.U. after    6 cycles
 SCF Done:  E(RM062X) =  -276.340031287     A.U. after    5 cycles
 SCF Done:  E(RM062X) =  -276.340031294     A.U. after    5 cycles
 SCF Done:  E(RM062X) =  -276.340031295     A.U. after    2 cycles
 Optimization completed.
    -- Stationary point found.
 Normal termination of Gaussian 16 at Sun Sep 29 05:51:13 2019.

 ----------------------------------------------------------------------
 #P Geom=AllCheck Guess=TCheck SCRF=Check Test GenChk RM062X/CC-pVTZ Fr
 eq
 ----------------------------------------------------------------------

 Structure from the checkpoint file:  "/scratch/harms.n/gauss_scrdir/Gau-19192.chk"
 ------------------------------
 Gaussian input prepared by ASE
 ------------------------------
 Charge =  0 Multiplicity = 1

                         Standard orientation:
 ---------------------------------------------------------------------
 Center     Atomic      Atomic             Coordinates (Angstroms)
 Number     Number       Type             X           Y           Z
 ---------------------------------------------------------------------
      1          6           0        0.852653    0.266993   -0.758699
      2          6           0       -0.309710    1.216391   -0.473754
      3          6           0       -1.166777    0.824223    0.732120
      4          6           0        1.822089    0.108151    0.407710
      5          6           0       -1.717423   -0.600432    0.677849
      6          6           0        3.027833   -0.748762    0.043445
      7          6           0       -2.564247   -0.871319   -0.560796
      8          1           0        1.304751   -0.338145    1.260104
      9          1           0        2.154614    1.097631    0.734531
     10          1           0        1.404617    0.635005   -1.627720
     11          1           0        0.470276   -0.718838   -1.041136
     12          1           0       -0.941419    1.283663   -1.362246
     13          1           0        0.087167    2.221222   -0.307160
     14          1           0       -2.004108    1.523277    0.806106
     15          1           0       -0.585497    0.948035    1.648503
     16          1           0       -0.893279   -1.317263    0.720091
     17          1           0       -2.317783   -0.777416    1.572170
     18          1           0        3.584735   -0.303930   -0.782501
     19          1           0        3.710363   -0.863957    0.884843
     20          1           0        2.712519   -1.745052   -0.270756
     21          1           0       -1.968639   -0.815004   -1.472494
     22          1           0       -3.369001   -0.138632   -0.646673
     23          1           0       -3.015829   -1.862077   -0.522915
 ---------------------------------------------------------------------

 SCF Done:  E(RM062X) =  -276.340031295     A.U. after    1 cycles

 The electronic state is 1-A.
 Alpha  occ. eigenvalues --  -10.52631 -10.52630 -10.52444 -10.52415 -10.52383
 Alpha  occ. eigenvalues --  -10.51966 -10.51960  -0.91436  -0.87431  -0.82255
 Alpha  occ. eigenvalues --   -0.76539  -0.71276  -0.66997  -0.62294  -0.55295
 Alpha  occ. eigenvalues --   -0.53157  -0.51120  -0.49271  -0.48004  -0.45925
 Alpha  occ. eigenvalues --   -0.44997  -0.42759  -0.42301  -0.40170  -0.39726
 Alpha  occ. eigenvalues --   -0.38920  -0.36866  -0.36587  -0.36181
 Alpha virt. eigenvalues --    0.06457   0.08060   0.08723   0.09211   0.11550
 Alpha virt. eigenvalues --    0.12284   0.12592   0.14667   0.15125   0.15378
 Alpha virt. eigenvalues --    0.15686   0.17194   0.17294   0.17877   0.19278

 Mulliken charges:
               1
     1  C   -0.281475
     2  C   -0.317510
     3  C   -0.307004
     4  C   -0.246690
     5  C   -0.257662
     6  C   -0.354044
     7  C   -0.370201
     8  H    0.133702
     9  H    0.133062
    10  H    0.143790
    11  H    0.146807
    12  H    0.156109
    13  H    0.149464
    14  H    0.149623
    15  H    0.154656
    16  H    0.137381
    17  H    0.135473
    18  H    0.110060
    19  H    0.114029
    20  H    0.110120
    21  H    0.120014
    22  H    0.120683
    23  H    0.119615
 Sum of Mulliken charges =  -0.00000

 Dipole moment (field-independent basis, Debye):
    X=             -0.0215    Y=              0.0444    Z=              0.0804  Tot=              0.0943
 Quadrupole moment (field-independent basis, Debye-Ang):
   XX=            -49.0408   YY=            -48.7348   ZZ=            -48.9881
   XY=              0.3623   XZ=             -0.1391   YZ=             -0.2210

  Exact polarizability:  95.363  -0.463  80.080   0.387   0.303  78.103
 Approx polarizability:  98.185  -0.031  97.232   0.091   0.188  96.760

                      1                      2                      3
                      A                      A                      A
 Frequencies --     64.0220               101.6115               112.6783
 Red. masses --      2.8331                 1.7354                 2.0788
 Frc consts  --      0.0068                 0.0106                 0.0156
 IR Inten    --      0.0054                 0.0090                 0.0021

                      4                      5                      6
                      A                      A                      A
 Frequencies --    187.9394               216.9128               254.0760
 Red. masses --      2.1859                 1.3420                 1.1600
 Frc consts  --      0.0455                 0.0372                 0.0441
 IR Inten    --      0.0343                 0.0148                 0.0027

                      7                      8                      9
                      A                      A                      A
 Frequencies --    286.1224               314.3273               362.7711
 Red. masses --      2.0621                 1.6391                 2.1458
 Frc consts  --      0.0995                 0.0954                 0.1664
 IR Inten    --      0.0571                 0.0502                 0.1231

                     10                     11                     12
                      A                      A                      A
 Frequencies --    433.7922               533.8630               717.3292
 Red. masses --      2.0074                 2.3358                 1.1810
 Frc consts  --      0.2226                 0.3922                 0.3581
 IR Inten    --      0.2343                 0.1576                 8.8834

                     13                     14                     15
                      A                      A                      A
 Frequencies --    750.9518               796.2100               841.6969
 Red. masses --      1.1622                 1.4756                 1.9511
 Frc consts  --      0.3862                 0.5512                 0.8144
 IR Inten    --      1.1777                 1.0187                 0.4400

                     16                     17                     18
                      A                      A                      A
 Frequencies --    879.3048               893.1732               950.5175
 Red. masses --      1.5933                 1.4654                 1.6215
 Frc consts  --      0.7258                 0.6888                 0.8632
 IR Inten    --      0.6378                 0.9708                 1.4726

                     19                     20                     21
                      A                      A                      A
 Frequencies --    962.9447              1029.8287              1055.0350
 Red. masses --      1.3833                 1.7727                 1.5152
 Frc consts  --      0.7558                 1.1077                 0.9937
 IR Inten    --      1.7386                 1.6186                 0.3527

                     22                     23                     24
                      A                      A                      A
 Frequencies --   1062.5549              1073.9656              1125.5030
 Red. masses --      1.3348                 2.1890                 1.9744
 Frc consts  --      0.8879                 1.4876                 1.4736
 IR Inten    --      0.6009                 0.0426                 0.1940

                     25                     26                     27
                      A                      A                      A
 Frequencies --   1163.8533              1169.9950              1237.1950
 Red. masses --      2.2430                 1.8900                 1.4087
 Frc consts  --      1.7901                 1.5243                 1.2704
 IR Inten    --      0.4459                 0.3189                 0.3618

                     28                     29                     30
                      A                      A                      A
 Frequencies --   1254.3731              1293.8442              1317.5535
 Red. masses --      1.4039                 1.2399                 1.2695
 Frc consts  --      1.3015                 1.2229                 1.2984
 IR Inten    --      0.1117                 1.7588                 0.3598

                     31                     32                     33
                      A                      A                      A
 Frequencies --   1325.3030              1338.8411              1368.2078
 Red. masses --      1.1411                 1.1462                 1.3757
 Frc consts  --      1.1809                 1.2105                 1.5174
 IR Inten    --      1.2632                 1.3555                 2.8900

                     34                     35                     36
                      A                      A                      A
 Frequencies --   1385.8468              1398.6792              1409.2801
 Red. masses --      1.5568                 1.4220                 1.6016
 Frc consts  --      1.7616                 1.6390                 1.8741
 IR Inten    --      0.4388                 1.6095                 0.1847

                     37                     38                     39
                      A                      A                      A
 Frequencies --   1413.0763              1417.4665              1480.6082
 Red. masses --      1.2518                 1.3132                 1.0689
 Frc consts  --      1.4727                 1.5545                 1.3806
 IR Inten    --      2.6531                 6.7362                 0.7200

                     40                     41                     42
                      A                      A                      A
 Frequencies --   1492.0218              1495.0642              1501.5932
 Red. masses --      1.0752                 1.0593                 1.0739
 Frc consts  --      1.4102                 1.3951                 1.4267
 IR Inten    --      2.6499                 2.5193                 7.1109

                     43                     44                     45
                      A                      A                      A
 Frequencies --   1502.8745              1503.9197              1508.0102
 Red. masses --      1.0461                 1.0555                 1.0637
 Frc consts  --      1.3921                 1.4065                 1.4252
 IR Inten    --      8.4958                 4.5160                11.1613

                     46                     47                     48
                      A                      A                      A
 Frequencies --   1514.2593              1517.7379              3039.8820
 Red. masses --      1.0791                 1.0811                 1.0612
 Frc consts  --      1.4578                 1.4672                 5.7777
 IR Inten    --      2.5689                 3.1046                 5.7088

                     49                     50                     51
                      A                      A                      A
 Frequencies --   3047.4995              3050.9043              3053.9453
 Red. masses --      1.0641                 1.0599                 1.0587
 Frc consts  --      5.8228                 5.8127                 5.8174
 IR Inten    --     11.7658                18.4741                37.7371

                     52                     53                     54
                      A                      A                      A
 Frequencies --   3056.8524              3057.7350              3059.5548
 Red. masses --      1.0558                 1.0413                 1.0478
 Frc consts  --      5.8129                 5.7360                 5.7790
 IR Inten    --     23.7434                22.8191                23.7113

                     55                     56                     57
                      A                      A                      A
 Frequencies --   3071.3649              3080.3046              3089.3896
 Red. masses --      1.0931                 1.0997                 1.0988
 Frc consts  --      6.0752                 6.1479                 6.1789
 IR Inten    --     15.7267                 5.3693                33.7113

                     58                     59                     60
                      A                      A                      A
 Frequencies --   3094.1186              3098.9749              3124.6811
 Red. masses --      1.1035                 1.1012                 1.1026
 Frc consts  --      6.2244                 6.2310                 6.3427
 IR Inten    --     35.3874                62.5821                45.4398

                     61                     62                     63
                      A                      A                      A
 Frequencies --   3125.3324              3132.8352              3134.1196
 Red. masses --      1.1016                 1.1016                 1.1016
 Frc consts  --      6.3395                 6.3703                 6.3752
 IR Inten    --     39.5751                28.8362                32.9373

 - Thermochemistry -
 -------------------
 Temperature   298.150 Kelvin.  Pressure   1.00000 Atm.
 Atom     1 has atomic number  6 and mass  12.00000

 Molecular mass:   100.12520 amu.
 Principal axes and moments of inertia in atomic units:
                           1         2         3
     Eigenvalues --   412.872231482.711481567.30987
           X            0.99999  -0.00178   0.00376
           Y            0.00170   0.99978   0.02078
           Z           -0.00379  -0.02077   0.99978
 This molecule is an asymmetric top.
 Rotational symmetry number  1.
 Rotational temperatures (Kelvin)      0.20978     0.05842     0.05526
 Rotational constants (GHZ):           4.37119     1.21719     1.15149
 Zero-point vibrational energy     576206.6 (Joules/Mol)
                                  137.71669 (Kcal/Mol)
 Warning -- explicit consideration of  11 degrees of freedom as
           vibrations may cause significant error
 Vibrational temperatures:     92.11   146.20   162.12   270.40   312.09
          (Kelvin)            365.56   411.67   452.25   521.95   624.13
                              768.11  1032.08  1080.45  1145.57  1211.01
                             1265.12  1285.08  1367.58  1385.46  1481.69
                             1517.96  1528.78  1545.20  1619.35  1674.53
                             1683.36  1780.05  1804.76  1861.55  1895.67
                             1906.82  1926.29  1968.55  1993.92  2012.39
                             2027.64  2033.10  2039.42  2130.26  2146.69
                             2151.06  2160.46  2162.30  2163.80  2169.69
                             2178.68  2183.69  4373.71  4384.67  4389.57
                             4393.95  4398.13  4399.40  4402.02  4419.01
                             4431.87  4444.94  4451.75  4458.73  4495.72
                             4496.66  4507.45  4509.30

 Zero-point correction=                           0.219466 (Hartree/Particle)
 Thermal correction to Energy=                    0.228693
 Thermal correction to Enthalpy=                  0.229637
 Thermal correction to Gibbs Free Energy=         0.185625
 Sum of electronic and zero-point Energies=           -276.120566
 Sum of electronic and thermal Energies=              -276.111339
 Sum of electronic and thermal Enthalpies=            -276.110394
 Sum of electronic and thermal Free Energies=         -276.154406

                     E (Thermal)             CV                S
                      KCal/Mol        Cal/Mol-Kelvin    Cal/Mol-Kelvin
 Total                  143.507             33.598             92.631
 Electronic               0.000              0.000              0.000
 Translational            0.889              2.981             39.722
 Rotational               0.889              2.981             28.352
 Vibrational            141.729             27.637             24.557
 Vibration     1          0.597              1.971              4.329
 Vibration     2          0.604              1.948              3.423
 Vibration     3          0.607              1.939              3.222
 Vibration     4          0.633              1.856              2.248
 Vibration     5          0.646              1.815              1.985
 Vibration     6          0.665              1.756              1.702
 Vibration     7          0.684              1.699              1.497
 Vibration     8          0.702              1.646              1.339
 Vibration     9          0.737              1.549              1.110
 Vibration    10          0.795              1.397              0.846
 Vibration    11          0.889              1.175              0.579

 Optimization completed.
    -- Stationary point found.
 Normal termination of Gaussian 16 at Sun Sep 29 09:42:33 2019.
