 Gaussian 16, Revision A.03,
 Gaussian 16:  EM64L-G16RevA.03 25-Dec-2016

 ----------------------------------------------------------------------
 #p m062x/cc-pVTZ opt=(calcfc,maxcycles=900,Tight) freq IOP(7/33=1,2/16
 =3) scf=(maxcycle=900)
 ----------------------------------------------------------------------

 ------------------------------
 Gaussian input prepared by ASE
 ------------------------------
 Symbolic Z-matrix:
 Charge =  0 Multiplicity = 1

 SCF Done:  E(RM062X) =  -276.309020208     A.U. after   11 cycles
 SCF Done:  E(RM062X) =  -276.324278979     A.U. after   11 cycles
 SCF Done:  E(RM062X) =  -276.328603321     A.U. after   12 cycles
 SCF Done:  E(RM062X) =  -276.333455324     A.U. after   10 cycles
 SCF Done:  E(RM062X) =  -276.335180478     A.U. after    9 cycles
 SCF Done:  E(RM062X) =  -276.337935824     A.U. after   11 cycles
 SCF Done:  E(RM062X) =  -276.339322955     A.U. after   11 cycles
 SCF Done:  E(RM062X) =  -276.339682959     A.U. after   10 cycles
 SCF Done:  E(RM062X) =  -276.339960058     A.U. after    9 cycles
 SCF Done:  E(RM062X) =  -276.340124022     A.U. after    9 cycles
 SCF Done:  E(RM062X) =  -276.340257563     A.U. after    8 cycles
 SCF Done:  E(RM062X) =  -276.340262074     A.U. after    8 cycles
 SCF Done:  E(RM062X) =  -276.340262096     A.U. after    5 cycles
 SCF Done:  E(RM062X) =  -276.340262142     A.U. after    5 cycles
 SCF Done:  E(RM062X) =  -276.340262143     A.U. after    3 cycles
 SCF Done:  E(RM062X) =  -276.340262143     A.U. after    3 cycles
 SCF Done:  E(RM062X) =  -276.340262144     A.U. after    3 cycles
 SCF Done:  E(RM062X) =  -276.340262143     A.U. after    2 cycles
 SCF Done:  E(RM062X) =  -276.340262144     A.U. after    2 cycles
 Optimization completed.
    -- Stationary point found.
 Normal termination of Gaussian 16 at Sun Sep 29 04:54:32 2019.

 ----------------------------------------------------------------------
 #P Geom=AllCheck Guess=TCheck SCRF=Check Test GenChk RM062X/CC-pVTZ Fr
 eq
 ----------------------------------------------------------------------

 Structure from the checkpoint file:  "/scratch/harms.n/gauss_scrdir/Gau-22068.chk"
 ------------------------------
 Gaussian input prepared by ASE
 ------------------------------
 Charge =  0 Multiplicity = 1

                         Standard orientation:
 ---------------------------------------------------------------------
 Center     Atomic      Atomic             Coordinates (Angstroms)
 Number     Number       Type             X           Y           Z
 ---------------------------------------------------------------------
      1          6           0        1.020375   -0.057635    0.161209
      2          6           0        0.022000    1.051163   -0.153179
      3          6           0       -1.400865    0.761437    0.317334
      4          6           0        2.454148    0.318353   -0.192964
      5          6           0       -2.035885   -0.463684   -0.332531
      6          6           0        3.444892   -0.799253    0.106163
      7          6           0       -3.495418   -0.637399    0.068350
      8          1           0        2.735294    1.218943    0.359059
      9          1           0        2.503236    0.581468   -1.252958
     10          1           0        0.750416   -0.968809   -0.379234
     11          1           0        0.963660   -0.304568    1.226925
     12          1           0        0.015769    1.231335   -1.232903
     13          1           0        0.369986    1.978432    0.309953
     14          1           0       -2.030396    1.631851    0.113062
     15          1           0       -1.403223    0.630224    1.404252
     16          1           0       -1.958446   -0.372191   -1.419815
     17          1           0       -1.476326   -1.359942   -0.057970
     18          1           0        3.425079   -1.061074    1.165155
     19          1           0        3.197772   -1.698328   -0.460305
     20          1           0        4.464781   -0.512958   -0.148741
     21          1           0       -4.085941    0.229827   -0.230715
     22          1           0       -3.588948   -0.742254    1.150413
     23          1           0       -3.938194   -1.519848   -0.392464
 ---------------------------------------------------------------------

 SCF Done:  E(RM062X) =  -276.340262144     A.U. after    1 cycles

 The electronic state is 1-A.
 Alpha  occ. eigenvalues --  -10.52620 -10.52577 -10.52476 -10.52439 -10.52393
 Alpha  occ. eigenvalues --  -10.51937 -10.51934  -0.91231  -0.87784  -0.82672
 Alpha  occ. eigenvalues --   -0.76262  -0.69947  -0.66820  -0.64332  -0.54735
 Alpha  occ. eigenvalues --   -0.53204  -0.49876  -0.49500  -0.48755  -0.45643
 Alpha  occ. eigenvalues --   -0.45151  -0.43369  -0.41328  -0.40217  -0.39679
 Alpha  occ. eigenvalues --   -0.38402  -0.37649  -0.36676  -0.36369
 Alpha virt. eigenvalues --    0.07047   0.07928   0.08990   0.09347   0.10450
 Alpha virt. eigenvalues --    0.12189   0.12893   0.14288   0.14707   0.15216
 Alpha virt. eigenvalues --    0.16174   0.16671   0.17691   0.18379   0.18762

 Mulliken charges:
               1
     1  C   -0.256394
     2  C   -0.269727
     3  C   -0.261059
     4  C   -0.231815
     5  C   -0.241376
     6  C   -0.352044
     7  C   -0.353418
     8  H    0.122054
     9  H    0.121604
    10  H    0.136673
    11  H    0.131030
    12  H    0.135028
    13  H    0.132707
    14  H    0.131466
    15  H    0.133454
    16  H    0.126817
    17  H    0.130984
    18  H    0.109078
    19  H    0.108727
    20  H    0.113654
    21  H    0.109516
    22  H    0.109451
    23  H    0.113592
 Sum of Mulliken charges =  -0.00000

 Dipole moment (field-independent basis, Debye):
    X=              0.0299    Y=              0.0351    Z=             -0.0386  Tot=              0.0601
 Quadrupole moment (field-independent basis, Debye-Ang):
   XX=            -49.8521   YY=            -49.0042   ZZ=            -48.2742
   XY=              0.2174   XZ=              0.2825   YZ=              0.1561

  Exact polarizability: 103.167  -0.028  79.882  -0.644  -0.248  74.957
 Approx polarizability:  98.182   0.120  96.896  -0.222  -0.172  96.930

                      1                      2                      3
                      A                      A                      A
 Frequencies --     66.4904                72.6342                97.3204
 Red. masses --      1.7175                 1.7621                 2.6358
 Frc consts  --      0.0045                 0.0055                 0.0147
 IR Inten    --      0.0043                 0.0147                 0.0008

                      4                      5                      6
                      A                      A                      A
 Frequencies --    125.9664               206.2937               241.3073
 Red. masses --      2.2821                 2.0703                 1.2981
 Frc consts  --      0.0213                 0.0519                 0.0445
 IR Inten    --      0.0096                 0.0187                 0.0132

                      7                      8                      9
                      A                      A                      A
 Frequencies --    247.9837               274.2707               311.4527
 Red. masses --      1.1189                 1.7166                 3.0665
 Frc consts  --      0.0405                 0.0761                 0.1753
 IR Inten    --      0.0013                 0.0472                 0.0277

                     10                     11                     12
                      A                      A                      A
 Frequencies --    406.9550               516.6614               729.8474
 Red. masses --      2.5476                 2.5760                 1.1107
 Frc consts  --      0.2486                 0.4052                 0.3486
 IR Inten    --      0.0581                 0.0424                 4.1818

                     13                     14                     15
                      A                      A                      A
 Frequencies --    746.7503               785.4681               854.3928
 Red. masses --      1.1070                 1.2270                 1.3354
 Frc consts  --      0.3637                 0.4460                 0.5743
 IR Inten    --      1.5483                 0.4962                 0.0776

                     16                     17                     18
                      A                      A                      A
 Frequencies --    870.4744               918.5448               944.4142
 Red. masses --      1.7907                 1.5798                 1.2244
 Frc consts  --      0.7994                 0.7853                 0.6434
 IR Inten    --      0.1896                 3.1920                 2.8859

                     19                     20                     21
                      A                      A                      A
 Frequencies --    987.9449              1040.4922              1057.7689
 Red. masses --      2.1303                 1.2248                 2.6767
 Frc consts  --      1.2251                 0.7812                 1.7645
 IR Inten    --      0.6395                 1.0537                 0.2493

                     22                     23                     24
                      A                      A                      A
 Frequencies --   1073.3693              1094.6260              1111.0910
 Red. masses --      2.0824                 1.8525                 2.0764
 Frc consts  --      1.4135                 1.3078                 1.5103
 IR Inten    --      0.5190                 0.5857                 0.2296

                     25                     26                     27
                      A                      A                      A
 Frequencies --   1164.9112              1196.9218              1244.5886
 Red. masses --      2.3358                 2.0011                 1.4502
 Frc consts  --      1.8676                 1.6891                 1.3235
 IR Inten    --      1.4597                 0.1457                 0.4258

                     28                     29                     30
                      A                      A                      A
 Frequencies --   1271.1964              1296.0793              1310.8537
 Red. masses --      1.3622                 1.2781                 1.3078
 Frc consts  --      1.2969                 1.2650                 1.3241
 IR Inten    --      0.6239                 0.5390                 1.1934

                     31                     32                     33
                      A                      A                      A
 Frequencies --   1331.6908              1333.4283              1344.3794
 Red. masses --      1.1535                 1.0904                 1.1375
 Frc consts  --      1.2053                 1.1423                 1.2113
 IR Inten    --      0.4111                 0.9328                 0.7627

                     34                     35                     36
                      A                      A                      A
 Frequencies --   1377.8303              1405.5213              1410.4289
 Red. masses --      1.4249                 1.6332                 1.6166
 Frc consts  --      1.5938                 1.9009                 1.8948
 IR Inten    --      0.1713                 0.1205                 1.9558

                     37                     38                     39
                      A                      A                      A
 Frequencies --   1414.4141              1415.4129              1485.1221
 Red. masses --      1.2770                 1.2965                 1.0758
 Frc consts  --      1.5052                 1.5304                 1.3980
 IR Inten    --      4.4227                 2.4546                 2.0659

                     40                     41                     42
                      A                      A                      A
 Frequencies --   1489.4876              1492.2493              1498.5977
 Red. masses --      1.0713                 1.0687                 1.0665
 Frc consts  --      1.4003                 1.4021                 1.4112
 IR Inten    --      0.4039                 0.8571                 0.9278

                     43                     44                     45
                      A                      A                      A
 Frequencies --   1502.7239              1504.2462              1504.5480
 Red. masses --      1.0758                 1.0393                 1.0398
 Frc consts  --      1.4313                 1.3856                 1.3868
 IR Inten    --      1.0290                 6.0001                 8.7654

                     46                     47                     48
                      A                      A                      A
 Frequencies --   1512.7307              1514.8822              3030.8362
 Red. masses --      1.0857                 1.0905                 1.0617
 Frc consts  --      1.4638                 1.4745                 5.7463
 IR Inten    --      7.2019                 6.1109                 0.1811

                     49                     50                     51
                      A                      A                      A
 Frequencies --   3035.4521              3039.2387              3050.1472
 Red. masses --      1.0629                 1.0609                 1.0627
 Frc consts  --      5.7700                 5.7735                 5.8252
 IR Inten    --      8.2804                19.3145                30.8486

                     52                     53                     54
                      A                      A                      A
 Frequencies --   3050.4007              3057.3122              3057.5629
 Red. masses --      1.0607                 1.0367                 1.0368
 Frc consts  --      5.8151                 5.7094                 5.7107
 IR Inten    --     41.6801                48.0379                25.3273

                     55                     56                     57
                      A                      A                      A
 Frequencies --   3063.0451              3070.0764              3077.7453
 Red. masses --      1.0962                 1.0957                 1.1026
 Frc consts  --      6.0598                 6.0849                 6.1537
 IR Inten    --      2.4014                13.6528                 3.3982

                     58                     59                     60
                      A                      A                      A
 Frequencies --   3094.2640              3097.1404              3124.9198
 Red. masses --      1.1044                 1.1012                 1.1028
 Frc consts  --      6.2298                 6.2234                 6.3447
 IR Inten    --     55.3763                30.4070                59.2342

                     61                     62                     63
                      A                      A                      A
 Frequencies --   3125.5401              3132.3031              3132.3602
 Red. masses --      1.1027                 1.1016                 1.1016
 Frc consts  --      6.3470                 6.3682                 6.3684
 IR Inten    --     35.5793                21.7270                42.1864

 - Thermochemistry -
 -------------------
 Temperature   298.150 Kelvin.  Pressure   1.00000 Atm.
 Atom     1 has atomic number  6 and mass  12.00000

 Molecular mass:   100.12520 amu.
 Principal axes and moments of inertia in atomic units:
                           1         2         3
     Eigenvalues --   261.456912065.467922213.00521
           X            1.00000  -0.00115  -0.00050
           Y            0.00115   0.99999  -0.00517
           Z            0.00051   0.00517   0.99999
 This molecule is an asymmetric top.
 Rotational symmetry number  1.
 Rotational temperatures (Kelvin)      0.33127     0.04193     0.03914
 Rotational constants (GHZ):           6.90263     0.87377     0.81552
 Zero-point vibrational energy     574465.4 (Joules/Mol)
                                  137.30052 (Kcal/Mol)
 Warning -- explicit consideration of  11 degrees of freedom as
           vibrations may cause significant error
 Vibrational temperatures:     95.66   104.50   140.02   181.24   296.81
          (Kelvin)            347.19   356.79   394.61   448.11   585.52
                              743.36  1050.09  1074.41  1130.11  1229.28
                             1252.42  1321.58  1358.80  1421.43  1497.04
                             1521.89  1544.34  1574.92  1598.61  1676.05
                             1722.10  1790.69  1828.97  1864.77  1886.03
                             1916.01  1918.51  1934.26  1982.39  2022.23
                             2029.29  2035.03  2036.46  2136.76  2143.04
                             2147.01  2156.15  2162.08  2164.27  2164.71
                             2176.48  2179.58  4360.70  4367.34  4372.79
                             4388.48  4388.85  4398.79  4399.15  4407.04
                             4417.16  4428.19  4451.96  4456.09  4496.06
                             4496.96  4506.69  4506.77

 Zero-point correction=                           0.218802 (Hartree/Particle)
 Thermal correction to Energy=                    0.228434
 Thermal correction to Enthalpy=                  0.229378
 Thermal correction to Gibbs Free Energy=         0.184017
 Sum of electronic and zero-point Energies=           -276.121460
 Sum of electronic and thermal Energies=              -276.111828
 Sum of electronic and thermal Enthalpies=            -276.110884
 Sum of electronic and thermal Free Energies=         -276.156246

                     E (Thermal)             CV                S
                      KCal/Mol        Cal/Mol-Kelvin    Cal/Mol-Kelvin
 Total                  143.344             33.969             95.471
 Electronic               0.000              0.000              0.000
 Translational            0.889              2.981             39.722
 Rotational               0.889              2.981             28.571
 Vibrational            141.567             28.007             27.179
 Vibration     1          0.598              1.970              4.255
 Vibration     2          0.599              1.967              4.081
 Vibration     3          0.603              1.951              3.507
 Vibration     4          0.611              1.927              3.007
 Vibration     5          0.641              1.831              2.076
 Vibration     6          0.658              1.777              1.793
 Vibration     7          0.662              1.766              1.745
 Vibration     8          0.677              1.721              1.569
 Vibration     9          0.700              1.652              1.355
 Vibration    10          0.772              1.455              0.937
 Vibration    11          0.872              1.213              0.618

 Optimization completed.
    -- Stationary point found.
 Normal termination of Gaussian 16 at Sun Sep 29 07:22:24 2019.
