 Gaussian 16, Revision A.03,
 Gaussian 16:  EM64L-G16RevA.03 25-Dec-2016

 ----------------------------------------------------------------------
 #p m062x/cc-pVTZ opt=(calcfc,maxcycles=900,Tight) freq IOP(7/33=1,2/16
 =3) scf=(maxcycle=900)
 ----------------------------------------------------------------------

 ------------------------------
 Gaussian input prepared by ASE
 ------------------------------
 Symbolic Z-matrix:
 Charge =  0 Multiplicity = 1

 SCF Done:  E(RM062X) =  -276.314742347     A.U. after   11 cycles
 SCF Done:  E(RM062X) =  -276.329021497     A.U. after   10 cycles
 SCF Done:  E(RM062X) =  -276.331680855     A.U. after   10 cycles
 SCF Done:  E(RM062X) =  -276.333416622     A.U. after   11 cycles
 SCF Done:  E(RM062X) =  -276.333936529     A.U. after   10 cycles
 SCF Done:  E(RM062X) =  -276.333454501     A.U. after   10 cycles
 SCF Done:  E(RM062X) =  -276.334334180     A.U. after    9 cycles
 SCF Done:  E(RM062X) =  -276.334451735     A.U. after    9 cycles
 SCF Done:  E(RM062X) =  -276.334539967     A.U. after    9 cycles
 SCF Done:  E(RM062X) =  -276.334563181     A.U. after    9 cycles
 SCF Done:  E(RM062X) =  -276.334573054     A.U. after    8 cycles
 SCF Done:  E(RM062X) =  -276.334575915     A.U. after    7 cycles
 SCF Done:  E(RM062X) =  -276.334576980     A.U. after    6 cycles
 SCF Done:  E(RM062X) =  -276.334577451     A.U. after    5 cycles
 SCF Done:  E(RM062X) =  -276.334577770     A.U. after    6 cycles
 SCF Done:  E(RM062X) =  -276.334577771     A.U. after    4 cycles
 SCF Done:  E(RM062X) =  -276.334577772     A.U. after    3 cycles
 Optimization completed.
    -- Stationary point found.
 Normal termination of Gaussian 16 at Sun Sep 29 12:24:57 2019.

 ----------------------------------------------------------------------
 #P Geom=AllCheck Guess=TCheck SCRF=Check Test GenChk RM062X/CC-pVTZ Fr
 eq
 ----------------------------------------------------------------------

 Structure from the checkpoint file:  "/scratch/harms.n/gauss_scrdir/Gau-2492.chk"
 ------------------------------
 Gaussian input prepared by ASE
 ------------------------------
 Charge =  0 Multiplicity = 1

                         Standard orientation:
 ---------------------------------------------------------------------
 Center     Atomic      Atomic             Coordinates (Angstroms)
 Number     Number       Type             X           Y           Z
 ---------------------------------------------------------------------
      1          6           0        0.825732    0.999264   -0.251877
      2          6           0       -0.000002    0.000020   -1.078394
      3          6           0       -0.825729   -0.999251   -0.251899
      4          6           0        2.268422    0.550949   -0.018249
      5          6           0       -2.268423   -0.550956   -0.018260
      6          6           0        2.393692   -0.775496    0.722669
      7          6           0       -2.393694    0.775473    0.722684
      8          1           0        2.796464    1.326736    0.540107
      9          1           0        2.771415    0.471033   -0.985827
     10          1           0        0.342654    1.164761    0.714487
     11          1           0        0.844376    1.967844   -0.755254
     12          1           0        0.681798   -0.541884   -1.738886
     13          1           0       -0.681804    0.541941   -1.738868
     14          1           0       -0.342653   -1.164767    0.714462
     15          1           0       -0.844363   -1.967821   -0.755296
     16          1           0       -2.771419   -0.471026   -0.985835
     17          1           0       -2.796457   -1.326757    0.540083
     18          1           0        1.937530   -1.590863    0.159696
     19          1           0        3.438866   -1.033708    0.890723
     20          1           0        1.899691   -0.727289    1.694933
     21          1           0       -1.937530    1.590852    0.159729
     22          1           0       -1.899690    0.727241    1.694946
     23          1           0       -3.438866    1.033685    0.890748
 ---------------------------------------------------------------------

 SCF Done:  E(RM062X) =  -276.334577772     A.U. after    1 cycles

 The electronic state is 1-A.
 Alpha  occ. eigenvalues --  -10.52632 -10.52632 -10.52482 -10.52403 -10.52394
 Alpha  occ. eigenvalues --  -10.51931 -10.51931  -0.91205  -0.87506  -0.81750
 Alpha  occ. eigenvalues --   -0.77112  -0.71231  -0.65454  -0.64040  -0.54578
 Alpha  occ. eigenvalues --   -0.52116  -0.51516  -0.50688  -0.46998  -0.45836
 Alpha  occ. eigenvalues --   -0.44189  -0.43961  -0.42210  -0.40721  -0.39309
 Alpha  occ. eigenvalues --   -0.38476  -0.37014  -0.36425  -0.35812
 Alpha virt. eigenvalues --    0.06672   0.08535   0.08700   0.08926   0.11717
 Alpha virt. eigenvalues --    0.11829   0.12606   0.13589   0.13698   0.15301
 Alpha virt. eigenvalues --    0.16322   0.16968   0.17059   0.17730   0.19760

 Mulliken charges:
               1
     1  C   -0.283770
     2  C   -0.320626
     3  C   -0.283771
     4  C   -0.229519
     5  C   -0.229521
     6  C   -0.392094
     7  C   -0.392093
     8  H    0.125555
     9  H    0.125065
    10  H    0.150995
    11  H    0.140070
    12  H    0.152375
    13  H    0.152375
    14  H    0.150996
    15  H    0.140070
    16  H    0.125065
    17  H    0.125556
    18  H    0.126376
    19  H    0.123060
    20  H    0.122200
    21  H    0.126376
    22  H    0.122199
    23  H    0.123060
 Sum of Mulliken charges =  -0.00000

 Dipole moment (field-independent basis, Debye):
    X=              0.0000    Y=              0.0000    Z=             -0.0519  Tot=              0.0519
 Quadrupole moment (field-independent basis, Debye-Ang):
   XX=            -48.7135   YY=            -49.1946   ZZ=            -48.6096
   XY=              0.2580   XZ=             -0.0000   YZ=             -0.0000

  Exact polarizability:  94.889   0.024  81.081  -0.000   0.000  76.934
 Approx polarizability:  98.426   0.020  96.859  -0.000  -0.000  97.214

                      1                      2                      3
                      A                      A                      A
 Frequencies --     76.2829                90.3418               133.4374
 Red. masses --      2.6927                 2.4557                 2.1739
 Frc consts  --      0.0092                 0.0118                 0.0228
 IR Inten    --      0.0008                 0.0440                 0.0272

                      4                      5                      6
                      A                      A                      A
 Frequencies --    178.7806               248.6923               287.4044
 Red. masses --      1.8648                 1.9663                 1.0698
 Frc consts  --      0.0351                 0.0717                 0.0521
 IR Inten    --      0.0033                 0.0071                 0.1031

                      7                      8                      9
                      A                      A                      A
 Frequencies --    305.9966               321.7271               352.9879
 Red. masses --      1.3786                 1.8819                 1.9659
 Frc consts  --      0.0761                 0.1148                 0.1443
 IR Inten    --      0.0000                 0.0453                 0.0248

                     10                     11                     12
                      A                      A                      A
 Frequencies --    458.0065               467.1586               758.4761
 Red. masses --      1.6554                 1.6955                 1.1816
 Frc consts  --      0.2046                 0.2180                 0.4005
 IR Inten    --      0.1310                 0.5794                 0.8602

                     13                     14                     15
                      A                      A                      A
 Frequencies --    779.1203               811.6354               823.7871
 Red. masses --      1.3583                 2.0903                 2.1775
 Frc consts  --      0.4858                 0.8113                 0.8706
 IR Inten    --      1.6057                 2.2678                 1.1735

                     16                     17                     18
                      A                      A                      A
 Frequencies --    864.3627               910.8107               943.6477
 Red. masses --      1.3019                 1.5151                 1.6646
 Frc consts  --      0.5731                 0.7406                 0.8733
 IR Inten    --      0.9671                 0.3189                 3.6656

                     19                     20                     21
                      A                      A                      A
 Frequencies --    950.7817              1014.7807              1065.8598
 Red. masses --      1.8369                 1.6462                 1.5569
 Frc consts  --      0.9784                 0.9988                 1.0421
 IR Inten    --      0.0006                 4.3706                 2.9464

                     22                     23                     24
                      A                      A                      A
 Frequencies --   1076.5113              1089.5948              1132.7873
 Red. masses --      1.4163                 2.0224                 1.9054
 Frc consts  --      0.9671                 1.4147                 1.4406
 IR Inten    --      0.0002                 0.0036                 0.1916

                     25                     26                     27
                      A                      A                      A
 Frequencies --   1154.4720              1157.7394              1248.2674
 Red. masses --      1.8747                 2.0035                 1.2879
 Frc consts  --      1.4721                 1.5822                 1.1824
 IR Inten    --      0.5398                 0.6718                 0.1166

                     28                     29                     30
                      A                      A                      A
 Frequencies --   1250.6498              1293.4546              1308.4416
 Red. masses --      1.3438                 1.2202                 1.2149
 Frc consts  --      1.2384                 1.2028                 1.2255
 IR Inten    --      0.4176                 0.5021                 0.4878

                     31                     32                     33
                      A                      A                      A
 Frequencies --   1319.8061              1355.4816              1381.2579
 Red. masses --      1.1308                 1.2988                 1.4490
 Frc consts  --      1.1606                 1.4060                 1.6288
 IR Inten    --      0.0293                 2.0310                 3.3240

                     34                     35                     36
                      A                      A                      A
 Frequencies --   1382.7506              1386.3161              1387.0658
 Red. masses --      1.3134                 1.4643                 1.4487
 Frc consts  --      1.4795                 1.6580                 1.6422
 IR Inten    --      0.1352                 0.6523                 0.0545

                     37                     38                     39
                      A                      A                      A
 Frequencies --   1416.7585              1416.9676              1488.9313
 Red. masses --      1.3040                 1.3115                 1.0776
 Frc consts  --      1.5421                 1.5514                 1.4076
 IR Inten    --      7.6791                 3.2190                 4.2400

                     40                     41                     42
                      A                      A                      A
 Frequencies --   1489.2667              1494.0368              1495.7957
 Red. masses --      1.0669                 1.0713                 1.0666
 Frc consts  --      1.3942                 1.4090                 1.4061
 IR Inten    --      0.3490                 0.0495                 0.5078

                     43                     44                     45
                      A                      A                      A
 Frequencies --   1504.1197              1504.5234              1511.4459
 Red. masses --      1.0444                 1.0747                 1.0729
 Frc consts  --      1.3921                 1.4332                 1.4441
 IR Inten    --      5.6761                 1.6750                 3.3722

                     46                     47                     48
                      A                      A                      A
 Frequencies --   1514.0489              1516.0919              3045.9534
 Red. masses --      1.0720                 1.0584                 1.0621
 Frc consts  --      1.4478                 1.4333                 5.8057
 IR Inten    --     14.7919                19.3313                21.5492

                     49                     50                     51
                      A                      A                      A
 Frequencies --   3048.6580              3049.1587              3051.7476
 Red. masses --      1.0620                 1.0615                 1.0636
 Frc consts  --      5.8157                 5.8147                 5.8360
 IR Inten    --     29.8100                 1.2717                10.5866

                     52                     53                     54
                      A                      A                      A
 Frequencies --   3055.5000              3057.1645              3058.7828
 Red. masses --      1.0441                 1.0382                 1.0561
 Frc consts  --      5.7433                 5.7172                 5.8217
 IR Inten    --      7.0235                48.7955                 4.6127

                     55                     56                     57
                      A                      A                      A
 Frequencies --   3079.5732              3085.4307              3088.2529
 Red. masses --      1.1013                 1.0977                 1.0964
 Frc consts  --      6.1537                 6.1570                 6.1609
 IR Inten    --     36.7948                 3.6908                48.7675

                     58                     59                     60
                      A                      A                      A
 Frequencies --   3095.2131              3101.5543              3124.6288
 Red. masses --      1.1038                 1.1019                 1.1020
 Frc consts  --      6.2306                 6.2455                 6.3389
 IR Inten    --     20.2337                58.2072                27.7483

                     61                     62                     63
                      A                      A                      A
 Frequencies --   3124.8240              3131.9108              3132.1415
 Red. masses --      1.1021                 1.1015                 1.1013
 Frc consts  --      6.3403                 6.3661                 6.3656
 IR Inten    --     51.4505                63.1704                 3.0208

 - Thermochemistry -
 -------------------
 Temperature   298.150 Kelvin.  Pressure   1.00000 Atm.
 Atom     1 has atomic number  6 and mass  12.00000

 Molecular mass:   100.12520 amu.
 Principal axes and moments of inertia in atomic units:
                           1         2         3
     Eigenvalues --   412.022001414.870941496.41813
           X            0.99996  -0.00927  -0.00000
           Y            0.00927   0.99996   0.00000
           Z            0.00000  -0.00000   1.00000
 This molecule is an asymmetric top.
 Rotational symmetry number  1.
 Rotational temperatures (Kelvin)      0.21022     0.06122     0.05788
 Rotational constants (GHZ):           4.38021     1.27555     1.20604
 Zero-point vibrational energy     576906.0 (Joules/Mol)
                                  137.88385 (Kcal/Mol)
 Warning -- explicit consideration of  11 degrees of freedom as
           vibrations may cause significant error
 Vibrational temperatures:    109.75   129.98   191.99   257.23   357.81
          (Kelvin)            413.51   440.26   462.89   507.87   658.97
                              672.14  1091.28  1120.98  1167.76  1185.25
                             1243.63  1310.45  1357.70  1367.96  1460.04
                             1533.53  1548.86  1567.68  1629.83  1661.03
                             1665.73  1795.98  1799.41  1860.99  1882.56
                             1898.91  1950.24  1987.32  1989.47  1994.60
                             1995.68  2038.40  2038.70  2142.24  2142.72
                             2149.59  2152.12  2164.09  2164.67  2174.63
                             2178.38  2181.32  4382.45  4386.34  4387.06
                             4390.78  4396.18  4398.58  4400.91  4430.82
                             4439.25  4443.31  4453.32  4462.44  4495.64
                             4495.92  4506.12  4506.45

 Zero-point correction=                           0.219732 (Hartree/Particle)
 Thermal correction to Energy=                    0.228825
 Thermal correction to Enthalpy=                  0.229769
 Thermal correction to Gibbs Free Energy=         0.186223
 Sum of electronic and zero-point Energies=           -276.114846
 Sum of electronic and thermal Energies=              -276.105752
 Sum of electronic and thermal Enthalpies=            -276.104808
 Sum of electronic and thermal Free Energies=         -276.148355

                     E (Thermal)             CV                S
                      KCal/Mol        Cal/Mol-Kelvin    Cal/Mol-Kelvin
 Total                  143.590             33.437             91.651
 Electronic               0.000              0.000              0.000
 Translational            0.889              2.981             39.722
 Rotational               0.889              2.981             28.258
 Vibrational            141.813             27.476             23.671
 Vibration     1          0.599              1.965              3.984
 Vibration     2          0.602              1.956              3.653
 Vibration     3          0.613              1.920              2.896
 Vibration     4          0.629              1.868              2.341
 Vibration     5          0.662              1.765              1.740
 Vibration     6          0.685              1.697              1.489
 Vibration     7          0.696              1.662              1.384
 Vibration     8          0.707              1.632              1.301
 Vibration     9          0.729              1.569              1.153
 Vibration    10          0.816              1.343              0.772
 Vibration    11          0.824              1.323              0.746

 Optimization completed.
    -- Stationary point found.
 Normal termination of Gaussian 16 at Sun Sep 29 15:15:46 2019.
 Normal termination of Gaussian 16 at Sun Sep 29 05:53:02 2019.
