 Gaussian 16, Revision A.03,
 Gaussian 16:  EM64L-G16RevA.03 25-Dec-2016

 ----------------------------------------------------------------------
 #p m062x/cc-pVTZ opt=(calcfc,maxcycles=900,Tight) freq IOP(7/33=1,2/16
 =3) scf=(maxcycle=900)
 ----------------------------------------------------------------------

 ------------------------------
 Gaussian input prepared by ASE
 ------------------------------
 Symbolic Z-matrix:
 Charge =  0 Multiplicity = 1

 SCF Done:  E(RM062X) =  -276.321199818     A.U. after   11 cycles
 SCF Done:  E(RM062X) =  -276.333855098     A.U. after   10 cycles
 SCF Done:  E(RM062X) =  -276.334254285     A.U. after    9 cycles
 SCF Done:  E(RM062X) =  -276.338281952     A.U. after   11 cycles
 SCF Done:  E(RM062X) =  -276.340107712     A.U. after   11 cycles
 SCF Done:  E(RM062X) =  -276.339933422     A.U. after   10 cycles
 SCF Done:  E(RM062X) =  -276.335949399     A.U. after   10 cycles
 SCF Done:  E(RM062X) =  -276.336124917     A.U. after   10 cycles
 SCF Done:  E(RM062X) =  -276.340187678     A.U. after    7 cycles
 SCF Done:  E(RM062X) =  -276.340231387     A.U. after    9 cycles
 SCF Done:  E(RM062X) =  -276.340259350     A.U. after    7 cycles
 SCF Done:  E(RM062X) =  -276.340263387     A.U. after    7 cycles
 SCF Done:  E(RM062X) =  -276.340264662     A.U. after    6 cycles
 SCF Done:  E(RM062X) =  -276.340264761     A.U. after    5 cycles
 SCF Done:  E(RM062X) =  -276.340264774     A.U. after    4 cycles
 SCF Done:  E(RM062X) =  -276.340264784     A.U. after    4 cycles
 SCF Done:  E(RM062X) =  -276.340264795     A.U. after    4 cycles
 SCF Done:  E(RM062X) =  -276.340264796     A.U. after    3 cycles
 SCF Done:  E(RM062X) =  -276.340264794     A.U. after    3 cycles
 Optimization completed on the basis of negligible forces.
    -- Stationary point found.
 Normal termination of Gaussian 16 at Sun Sep 29 04:04:03 2019.

 ----------------------------------------------------------------------
 #P Geom=AllCheck Guess=TCheck SCRF=Check Test GenChk RM062X/CC-pVTZ Fr
 eq
 ----------------------------------------------------------------------

 Structure from the checkpoint file:  "/scratch/harms.n/gauss_scrdir/Gau-1080.chk"
 ------------------------------
 Gaussian input prepared by ASE
 ------------------------------
 Charge =  0 Multiplicity = 1

                         Standard orientation:
 ---------------------------------------------------------------------
 Center     Atomic      Atomic             Coordinates (Angstroms)
 Number     Number       Type             X           Y           Z
 ---------------------------------------------------------------------
      1          6           0       -1.205010   -0.403965   -0.146303
      2          6           0        0.180729    0.102503    0.233424
      3          6           0        1.294048   -0.857800   -0.170628
      4          6           0       -2.323725    0.557031    0.236308
      5          6           0        2.682027   -0.438394    0.308317
      6          6           0       -3.702400    0.033738   -0.145474
      7          6           0        3.143713    0.898374   -0.262191
      8          1           0       -2.148335    1.521748   -0.246849
      9          1           0       -2.284159    0.742119    1.312960
     10          1           0       -1.381483   -1.372268    0.332698
     11          1           0       -1.240155   -0.587181   -1.225086
     12          1           0        0.222275    0.268902    1.315203
     13          1           0        0.341120    1.077694   -0.233670
     14          1           0        1.303419   -0.956055   -1.260939
     15          1           0        1.063254   -1.850483    0.225196
     16          1           0        2.683566   -0.388821    1.400550
     17          1           0        3.400687   -1.213261    0.034550
     18          1           0       -3.768975   -0.133348   -1.221573
     19          1           0       -3.906511   -0.917188    0.348878
     20          1           0       -4.490460    0.732213    0.134124
     21          1           0        2.522384    1.720893    0.091195
     22          1           0        3.095142    0.889941   -1.352841
     23          1           0        4.171935    1.116176    0.024886
 ---------------------------------------------------------------------

 SCF Done:  E(RM062X) =  -276.340264794     A.U. after    1 cycles

 The electronic state is 1-A.
 Alpha  occ. eigenvalues --  -10.52636 -10.52609 -10.52452 -10.52433 -10.52383
 Alpha  occ. eigenvalues --  -10.51933 -10.51898  -0.91199  -0.87871  -0.82499
 Alpha  occ. eigenvalues --   -0.76328  -0.70507  -0.65933  -0.64506  -0.55157
 Alpha  occ. eigenvalues --   -0.52219  -0.51722  -0.49229  -0.47651  -0.46406
 Alpha  occ. eigenvalues --   -0.44694  -0.42879  -0.41529  -0.40598  -0.39255
 Alpha  occ. eigenvalues --   -0.38292  -0.37712  -0.37473  -0.35859
 Alpha virt. eigenvalues --    0.06935   0.07865   0.09217   0.09423   0.10509
 Alpha virt. eigenvalues --    0.12265   0.12664   0.13777   0.14818   0.15403
 Alpha virt. eigenvalues --    0.16123   0.16529   0.17162   0.18278   0.18647

 Mulliken charges:
               1
     1  C   -0.246232
     2  C   -0.265428
     3  C   -0.262594
     4  C   -0.229146
     5  C   -0.240397
     6  C   -0.353219
     7  C   -0.368118
     8  H    0.121067
     9  H    0.121045
    10  H    0.126727
    11  H    0.126701
    12  H    0.131554
    13  H    0.136470
    14  H    0.135002
    15  H    0.131255
    16  H    0.124722
    17  H    0.126013
    18  H    0.108941
    19  H    0.108999
    20  H    0.113639
    21  H    0.119042
    22  H    0.115661
    23  H    0.118294
 Sum of Mulliken charges =  -0.00000

 Dipole moment (field-independent basis, Debye):
    X=              0.0460    Y=             -0.0143    Z=              0.0438  Tot=              0.0651
 Quadrupole moment (field-independent basis, Debye-Ang):
   XX=            -49.5102   YY=            -49.1323   ZZ=            -48.2873
   XY=             -0.4604   XZ=             -0.1761   YZ=             -0.2860

  Exact polarizability: 103.518   0.753  79.289   0.526   0.473  75.068
 Approx polarizability:  97.984   0.291  96.929   0.175   0.268  96.909

                      1                      2                      3
                      A                      A                      A
 Frequencies --     47.4626                79.5781               115.5078
 Red. masses --      1.9312                 2.2587                 2.4294
 Frc consts  --      0.0026                 0.0084                 0.0191
 IR Inten    --      0.0111                 0.0047                 0.0088

                      4                      5                      6
                      A                      A                      A
 Frequencies --    134.5743               147.4593               244.8313
 Red. masses --      1.8989                 1.7050                 1.4744
 Frc consts  --      0.0203                 0.0218                 0.0521
 IR Inten    --      0.0070                 0.0090                 0.0043

                      7                      8                      9
                      A                      A                      A
 Frequencies --    246.4187               288.7364               357.9609
 Red. masses --      1.2331                 1.5913                 2.7842
 Frc consts  --      0.0441                 0.0782                 0.2102
 IR Inten    --      0.0007                 0.0020                 0.0352

                     10                     11                     12
                      A                      A                      A
 Frequencies --    396.9269               496.5595               729.0080
 Red. masses --      2.6685                 2.2911                 1.0718
 Frc consts  --      0.2477                 0.3328                 0.3356
 IR Inten    --      0.0480                 0.4047                 4.1212

                     13                     14                     15
                      A                      A                      A
 Frequencies --    747.2043               781.0885               844.2936
 Red. masses --      1.1477                 1.1703                 1.2639
 Frc consts  --      0.3775                 0.4207                 0.5308
 IR Inten    --      0.9767                 2.3148                 0.9099

                     16                     17                     18
                      A                      A                      A
 Frequencies --    884.7027               920.1314               947.3489
 Red. masses --      2.2262                 1.7104                 1.2490
 Frc consts  --      1.0266                 0.8532                 0.6604
 IR Inten    --      1.4506                 1.3236                 0.4894

                     19                     20                     21
                      A                      A                      A
 Frequencies --    985.2675              1032.8273              1052.6831
 Red. masses --      1.8776                 1.1972                 2.8323
 Frc consts  --      1.0739                 0.7525                 1.8492
 IR Inten    --      0.8639                 0.2367                 0.0852

                     22                     23                     24
                      A                      A                      A
 Frequencies --   1083.2111              1097.4234              1108.5671
 Red. masses --      2.0724                 1.8717                 1.9877
 Frc consts  --      1.4327                 1.3281                 1.4392
 IR Inten    --      0.1382                 1.0083                 1.1115

                     25                     26                     27
                      A                      A                      A
 Frequencies --   1163.1021              1198.3039              1239.0717
 Red. masses --      2.4565                 1.9570                 1.4777
 Frc consts  --      1.9580                 1.6557                 1.3367
 IR Inten    --      1.1628                 0.3678                 0.4723

                     28                     29                     30
                      A                      A                      A
 Frequencies --   1262.1965              1295.5534              1311.8817
 Red. masses --      1.3267                 1.2600                 1.2200
 Frc consts  --      1.2453                 1.2461                 1.2370
 IR Inten    --      0.1100                 0.0859                 1.6898

                     31                     32                     33
                      A                      A                      A
 Frequencies --   1332.2376              1335.6858              1349.0456
 Red. masses --      1.0490                 1.1474                 1.2975
 Frc consts  --      1.0970                 1.2061                 1.3912
 IR Inten    --      0.2826                 0.9561                 0.1672

                     34                     35                     36
                      A                      A                      A
 Frequencies --   1380.2836              1396.8496              1410.4689
 Red. masses --      1.3956                 1.5209                 1.6043
 Frc consts  --      1.5666                 1.7484                 1.8804
 IR Inten    --      2.8233                 0.4365                 0.8033

                     37                     38                     39
                      A                      A                      A
 Frequencies --   1414.4455              1417.6856              1484.1980
 Red. masses --      1.3211                 1.3570                 1.0757
 Frc consts  --      1.5573                 1.6069                 1.3961
 IR Inten    --      1.3445                 8.5977                 0.9088

                     40                     41                     42
                      A                      A                      A
 Frequencies --   1487.1402              1493.6592              1495.1369
 Red. masses --      1.0747                 1.0614                 1.0671
 Frc consts  --      1.4004                 1.3952                 1.4054
 IR Inten    --      0.2016                 1.3921                 0.2117

                     43                     44                     45
                      A                      A                      A
 Frequencies --   1503.3012              1505.1149              1506.7929
 Red. masses --      1.0393                 1.0622                 1.0813
 Frc consts  --      1.3839                 1.4178                 1.4465
 IR Inten    --      7.0485                 4.4511                 2.0445

                     46                     47                     48
                      A                      A                      A
 Frequencies --   1513.9416              1514.7593              3029.9919
 Red. masses --      1.0637                 1.0879                 1.0604
 Frc consts  --      1.4364                 1.4707                 5.7360
 IR Inten    --      4.5656                11.8578                 1.1291

                     49                     50                     51
                      A                      A                      A
 Frequencies --   3033.3226              3042.4245              3049.5596
 Red. masses --      1.0609                 1.0624                 1.0645
 Frc consts  --      5.7512                 5.7939                 5.8326
 IR Inten    --      0.5350                31.4841                15.9263

                     52                     53                     54
                      A                      A                      A
 Frequencies --   3050.4772              3057.8345              3058.3679
 Red. masses --      1.0609                 1.0755                 1.0371
 Frc consts  --      5.8166                 5.9251                 5.7155
 IR Inten    --     53.0935                14.0818                38.2917

                     55                     56                     57
                      A                      A                      A
 Frequencies --   3059.6825              3070.1710              3083.1674
 Red. masses --      1.0564                 1.0971                 1.1014
 Frc consts  --      5.8266                 6.0931                 6.1688
 IR Inten    --     15.4027                 4.6856                 8.8491

                     58                     59                     60
                      A                      A                      A
 Frequencies --   3088.5473              3097.7116              3125.3381
 Red. masses --      1.1022                 1.1040                 1.1027
 Frc consts  --      6.1947                 6.2419                 6.3462
 IR Inten    --     15.0552                86.7168                48.1416

                     61                     62                     63
                      A                      A                      A
 Frequencies --   3126.7030              3133.3071              3136.5610
 Red. masses --      1.1007                 1.1016                 1.1018
 Frc consts  --      6.3399                 6.3721                 6.3863
 IR Inten    --     34.5716                31.2731                36.0485

 - Thermochemistry -
 -------------------
 Temperature   298.150 Kelvin.  Pressure   1.00000 Atm.
 Atom     1 has atomic number  6 and mass  12.00000

 Molecular mass:   100.12520 amu.
 Principal axes and moments of inertia in atomic units:
                           1         2         3
     Eigenvalues --   221.260222169.649872273.06818
           X            0.99999   0.00409   0.00012
           Y           -0.00409   0.99999   0.00294
           Z           -0.00011  -0.00294   1.00000
 This molecule is an asymmetric top.
 Rotational symmetry number  1.
 Rotational temperatures (Kelvin)      0.39146     0.03992     0.03810
 Rotational constants (GHZ):           8.15665     0.83181     0.79397
 Zero-point vibrational energy     574349.8 (Joules/Mol)
                                  137.27291 (Kcal/Mol)
 Warning -- explicit consideration of  11 degrees of freedom as
           vibrations may cause significant error
 Vibrational temperatures:     68.29   114.50   166.19   193.62   212.16
          (Kelvin)            352.26   354.54   415.43   515.03   571.09
                              714.44  1048.88  1075.06  1123.81  1214.75
                             1272.89  1323.86  1363.02  1417.58  1486.01
                             1514.58  1558.50  1578.95  1594.98  1673.44
                             1724.09  1782.75  1816.02  1864.01  1887.51
                             1916.79  1921.75  1940.98  1985.92  2009.76
                             2029.35  2035.07  2039.73  2135.43  2139.66
                             2149.04  2151.17  2162.92  2165.52  2167.94
                             2178.22  2179.40  4359.48  4364.27  4377.37
                             4387.64  4388.96  4399.54  4400.31  4402.20
                             4417.29  4435.99  4443.73  4456.92  4496.66
                             4498.63  4508.13  4512.81

 Zero-point correction=                           0.218758 (Hartree/Particle)
 Thermal correction to Energy=                    0.228413
 Thermal correction to Enthalpy=                  0.229357
 Thermal correction to Gibbs Free Energy=         0.183840
 Sum of electronic and zero-point Energies=           -276.121506
 Sum of electronic and thermal Energies=              -276.111852
 Sum of electronic and thermal Enthalpies=            -276.110908
 Sum of electronic and thermal Free Energies=         -276.156425

                     E (Thermal)             CV                S
                      KCal/Mol        Cal/Mol-Kelvin    Cal/Mol-Kelvin
 Total                  143.331             33.979             95.799
 Electronic               0.000              0.000              0.000
 Translational            0.889              2.981             39.722
 Rotational               0.889              2.981             28.480
 Vibrational            141.554             28.017             27.597
 Vibration     1          0.595              1.979              4.920
 Vibration     2          0.600              1.963              3.901
 Vibration     3          0.608              1.937              3.174
 Vibration     4          0.613              1.919              2.880
 Vibration     5          0.617              1.905              2.705
 Vibration     6          0.660              1.771              1.767
 Vibration     7          0.661              1.769              1.756
 Vibration     8          0.685              1.695              1.481
 Vibration     9          0.733              1.559              1.131
 Vibration    10          0.763              1.477              0.974
 Vibration    11          0.852              1.258              0.667

                           ! Non-Optimized Parameters !
 Normal termination of Gaussian 16 at Sun Sep 29 06:32:59 2019.
