 Gaussian 16, Revision A.03,
 Gaussian 16:  EM64L-G16RevA.03 25-Dec-2016

 ----------------------------------------------------------------------
 #p m062x/cc-pVTZ opt=(calcfc,maxcycles=900,Tight) freq IOP(7/33=1,2/16
 =3) scf=(maxcycle=900)
 ----------------------------------------------------------------------

 ------------------------------
 Gaussian input prepared by ASE
 ------------------------------
 Symbolic Z-matrix:
 Charge =  0 Multiplicity = 1

 SCF Done:  E(RM062X) =  -276.310994238     A.U. after   11 cycles
 SCF Done:  E(RM062X) =  -276.326144640     A.U. after   11 cycles
 SCF Done:  E(RM062X) =  -276.323391117     A.U. after   10 cycles
 SCF Done:  E(RM062X) =  -276.330960009     A.U. after   10 cycles
 SCF Done:  E(RM062X) =  -276.332755750     A.U. after   10 cycles
 SCF Done:  E(RM062X) =  -276.333834289     A.U. after   10 cycles
 SCF Done:  E(RM062X) =  -276.334227847     A.U. after    9 cycles
 SCF Done:  E(RM062X) =  -276.334801714     A.U. after    9 cycles
 SCF Done:  E(RM062X) =  -276.335347598     A.U. after   10 cycles
 SCF Done:  E(RM062X) =  -276.335576225     A.U. after    9 cycles
 SCF Done:  E(RM062X) =  -276.336405687     A.U. after    8 cycles
 SCF Done:  E(RM062X) =  -276.336405611     A.U. after    6 cycles
 SCF Done:  E(RM062X) =  -276.336405615     A.U. after    4 cycles
 SCF Done:  E(RM062X) =  -276.336405953     A.U. after    6 cycles
 SCF Done:  E(RM062X) =  -276.336405958     A.U. after    5 cycles
 SCF Done:  E(RM062X) =  -276.336405959     A.U. after    3 cycles
 SCF Done:  E(RM062X) =  -276.336405959     A.U. after    3 cycles
 SCF Done:  E(RM062X) =  -276.336405960     A.U. after    3 cycles
 SCF Done:  E(RM062X) =  -276.336405960     A.U. after    2 cycles
 Optimization completed.
    -- Stationary point found.
 Normal termination of Gaussian 16 at Sun Sep 29 08:35:24 2019.

 ----------------------------------------------------------------------
 #P Geom=AllCheck Guess=TCheck SCRF=Check Test GenChk RM062X/CC-pVTZ Fr
 eq
 ----------------------------------------------------------------------

 Structure from the checkpoint file:  "/scratch/harms.n/gauss_scrdir/Gau-35522.chk"
 ------------------------------
 Gaussian input prepared by ASE
 ------------------------------
 Charge =  0 Multiplicity = 1

                         Standard orientation:
 ---------------------------------------------------------------------
 Center     Atomic      Atomic             Coordinates (Angstroms)
 Number     Number       Type             X           Y           Z
 ---------------------------------------------------------------------
      1          6           0        1.354836   -1.092410   -0.330907
      2          6           0       -0.162924   -0.968112   -0.199200
      3          6           0       -0.713329    0.429863   -0.465093
      4          6           0        2.152606   -0.197876    0.629332
      5          6           0       -2.238589    0.480728   -0.530759
      6          6           0        2.563350    1.144410    0.029423
      7          6           0       -2.915685    0.060245    0.769438
      8          1           0        3.056383   -0.721549    0.944861
      9          1           0        1.566089   -0.034258    1.538094
     10          1           0        1.649506   -0.865817   -1.360405
     11          1           0        1.622604   -2.136520   -0.160108
     12          1           0       -0.449564   -1.286905    0.806528
     13          1           0       -0.639085   -1.669497   -0.891391
     14          1           0       -0.300150    0.801742   -1.407131
     15          1           0       -0.370745    1.114194    0.316809
     16          1           0       -2.549177    1.495751   -0.785861
     17          1           0       -2.583086   -0.161654   -1.345680
     18          1           0        3.206524    0.990581   -0.838342
     19          1           0        1.701355    1.722551   -0.300398
     20          1           0        3.115599    1.747587    0.750146
     21          1           0       -2.540272    0.650071    1.608046
     22          1           0       -2.733034   -0.990152    0.994700
     23          1           0       -3.994541    0.202782    0.716734
 ---------------------------------------------------------------------

 SCF Done:  E(RM062X) =  -276.336405960     A.U. after    1 cycles

 The electronic state is 1-A.
 Alpha  occ. eigenvalues --  -10.52659 -10.52637 -10.52484 -10.52461 -10.52430
 Alpha  occ. eigenvalues --  -10.51925 -10.51820  -0.91237  -0.87530  -0.82143
 Alpha  occ. eigenvalues --   -0.76728  -0.70952  -0.66283  -0.63703  -0.54226
 Alpha  occ. eigenvalues --   -0.52854  -0.51157  -0.49817  -0.48059  -0.46296
 Alpha  occ. eigenvalues --   -0.44132  -0.43528  -0.41894  -0.40107  -0.39458
 Alpha  occ. eigenvalues --   -0.39048  -0.37250  -0.36385  -0.35871
 Alpha virt. eigenvalues --    0.06902   0.08311   0.08727   0.08897   0.11594
 Alpha virt. eigenvalues --    0.12401   0.12878   0.13700   0.13832   0.15450
 Alpha virt. eigenvalues --    0.15681   0.16170   0.17233   0.18059   0.19128

 Mulliken charges:
               1
     1  C   -0.264887
     2  C   -0.270322
     3  C   -0.290642
     4  C   -0.258434
     5  C   -0.253038
     6  C   -0.362028
     7  C   -0.368106
     8  H    0.128328
     9  H    0.133356
    10  H    0.132014
    11  H    0.132483
    12  H    0.143928
    13  H    0.139143
    14  H    0.146958
    15  H    0.146121
    16  H    0.126175
    17  H    0.125525
    18  H    0.113441
    19  H    0.129755
    20  H    0.115501
    21  H    0.115960
    22  H    0.120077
    23  H    0.118693
 Sum of Mulliken charges =  -0.00000

 Dipole moment (field-independent basis, Debye):
    X=             -0.0145    Y=             -0.0525    Z=             -0.0170  Tot=              0.0571
 Quadrupole moment (field-independent basis, Debye-Ang):
   XX=            -48.9932   YY=            -48.8663   ZZ=            -48.8017
   XY=             -0.4396   XZ=              0.3404   YZ=              0.2165

  Exact polarizability:  96.872   0.736  80.612  -0.268  -0.299  77.041
 Approx polarizability:  98.197   0.416  96.767  -0.049   0.200  97.260

                      1                      2                      3
                      A                      A                      A
 Frequencies --     58.8950                88.6517               128.1916
 Red. masses --      2.4383                 1.7239                 2.5464
 Frc consts  --      0.0050                 0.0080                 0.0247
 IR Inten    --      0.0010                 0.0096                 0.0106

                      4                      5                      6
                      A                      A                      A
 Frequencies --    148.6975               220.7129               223.1253
 Red. masses --      1.9419                 1.5984                 1.1743
 Frc consts  --      0.0253                 0.0459                 0.0344
 IR Inten    --      0.0198                 0.0741                 0.0346

                      7                      8                      9
                      A                      A                      A
 Frequencies --    264.5336               304.3119               376.3598
 Red. masses --      1.7279                 1.6902                 1.9971
 Frc consts  --      0.0712                 0.0922                 0.1667
 IR Inten    --      0.1067                 0.0400                 0.1975

                     10                     11                     12
                      A                      A                      A
 Frequencies --    411.5668               509.4246               743.3868
 Red. masses --      2.0157                 2.0214                 1.2534
 Frc consts  --      0.2012                 0.3091                 0.4081
 IR Inten    --      0.0654                 0.1091                 1.1429

                     13                     14                     15
                      A                      A                      A
 Frequencies --    773.8153               790.8784               825.9735
 Red. masses --      1.2097                 1.3553                 1.6513
 Frc consts  --      0.4268                 0.4994                 0.6638
 IR Inten    --      6.7962                 0.5496                 1.2431

                     16                     17                     18
                      A                      A                      A
 Frequencies --    867.1490               914.9835               954.9038
 Red. masses --      1.8219                 1.7365                 1.6421
 Frc consts  --      0.8072                 0.8565                 0.8822
 IR Inten    --      0.5700                 1.0211                 0.9944

                     19                     20                     21
                      A                      A                      A
 Frequencies --    973.0206              1025.9745              1051.1428
 Red. masses --      1.5632                 1.9065                 1.2709
 Frc consts  --      0.8720                 1.1824                 0.8273
 IR Inten    --      1.8794                 1.5128                 0.3275

                     22                     23                     24
                      A                      A                      A
 Frequencies --   1074.2459              1095.2058              1122.5026
 Red. masses --      1.4249                 2.2478                 2.0249
 Frc consts  --      0.9688                 1.5886                 1.5032
 IR Inten    --      0.5246                 0.2620                 0.1177

                     25                     26                     27
                      A                      A                      A
 Frequencies --   1152.6582              1183.8616              1233.3928
 Red. masses --      2.0193                 2.0576                 1.3871
 Frc consts  --      1.5807                 1.6990                 1.2433
 IR Inten    --      1.3402                 0.3170                 0.1768

                     28                     29                     30
                      A                      A                      A
 Frequencies --   1263.7055              1297.3233              1310.8710
 Red. masses --      1.3428                 1.2151                 1.2087
 Frc consts  --      1.2634                 1.2049                 1.2238
 IR Inten    --      0.4768                 0.0556                 1.1381

                     31                     32                     33
                      A                      A                      A
 Frequencies --   1330.4674              1347.8688              1369.7365
 Red. masses --      1.1364                 1.2236                 1.3259
 Frc consts  --      1.1852                 1.3098                 1.4657
 IR Inten    --      0.7277                 0.2298                 3.1102

                     34                     35                     36
                      A                      A                      A
 Frequencies --   1378.1281              1388.3727              1409.1708
 Red. masses --      1.4057                 1.5435                 1.4789
 Frc consts  --      1.5730                 1.7530                 1.7303
 IR Inten    --      3.1893                 0.1753                 1.6925

                     37                     38                     39
                      A                      A                      A
 Frequencies --   1414.9365              1417.5417              1483.2981
 Red. masses --      1.2641                 1.3482                 1.0777
 Frc consts  --      1.4911                 1.5961                 1.3970
 IR Inten    --      5.8711                 5.4192                 1.2173

                     40                     41                     42
                      A                      A                      A
 Frequencies --   1492.2556              1494.4924              1498.4826
 Red. masses --      1.0708                 1.0619                 1.0675
 Frc consts  --      1.4048                 1.3975                 1.4122
 IR Inten    --      0.9483                 1.6458                 3.5110

                     43                     44                     45
                      A                      A                      A
 Frequencies --   1502.7784              1504.8342              1509.4815
 Red. masses --      1.0810                 1.0522                 1.0652
 Frc consts  --      1.4383                 1.4038                 1.4301
 IR Inten    --      4.9831                 7.8220                 3.6624

                     46                     47                     48
                      A                      A                      A
 Frequencies --   1512.7732              1513.9140              3035.0807
 Red. masses --      1.0722                 1.0612                 1.0600
 Frc consts  --      1.4457                 1.4331                 5.7529
 IR Inten    --      0.8453                11.6608                 0.1087

                     49                     50                     51
                      A                      A                      A
 Frequencies --   3040.0753              3044.4497              3048.7693
 Red. masses --      1.0674                 1.0615                 1.0649
 Frc consts  --      5.8122                 5.7968                 5.8319
 IR Inten    --     13.3659                48.3859                 6.9701

                     52                     53                     54
                      A                      A                      A
 Frequencies --   3049.3864              3058.9986              3063.2849
 Red. masses --      1.0629                 1.0386                 1.0380
 Frc consts  --      5.8232                 5.7262                 5.7388
 IR Inten    --     37.8713                21.6485                25.9349

                     55                     56                     57
                      A                      A                      A
 Frequencies --   3069.6060              3082.7551              3087.0645
 Red. masses --      1.0961                 1.1002                 1.1005
 Frc consts  --      6.0850                 6.1604                 6.1793
 IR Inten    --      3.3096                15.3577                26.2250

                     58                     59                     60
                      A                      A                      A
 Frequencies --   3093.4076              3097.4554              3126.4884
 Red. masses --      1.0974                 1.1016                 1.1008
 Frc consts  --      6.1871                 6.2268                 6.3400
 IR Inten    --     54.5201                53.8932                15.7398

                     61                     62                     63
                      A                      A                      A
 Frequencies --   3126.6616              3138.1295              3145.8579
 Red. masses --      1.1010                 1.1018                 1.1002
 Frc consts  --      6.3418                 6.3928                 6.4149
 IR Inten    --     52.1040                33.4361                30.8636

 - Thermochemistry -
 -------------------
 Temperature   298.150 Kelvin.  Pressure   1.00000 Atm.
 Atom     1 has atomic number  6 and mass  12.00000

 Molecular mass:   100.12520 amu.
 Principal axes and moments of inertia in atomic units:
                           1         2         3
     Eigenvalues --   378.902551592.461221712.23312
           X            0.99997   0.00648  -0.00470
           Y           -0.00653   0.99993  -0.00988
           Z            0.00463   0.00991   0.99994
 This molecule is an asymmetric top.
 Rotational symmetry number  1.
 Rotational temperatures (Kelvin)      0.22859     0.05439     0.05059
 Rotational constants (GHZ):           4.76307     1.13330     1.05403
 Zero-point vibrational energy     575795.4 (Joules/Mol)
                                  137.61840 (Kcal/Mol)
 Warning -- explicit consideration of  11 degrees of freedom as
           vibrations may cause significant error
 Vibrational temperatures:     84.74   127.55   184.44   213.94   317.56
          (Kelvin)            321.03   380.60   437.84   541.50   592.15
                              732.95  1069.57  1113.35  1137.90  1188.39
                             1247.63  1316.46  1373.89  1399.96  1476.15
                             1512.36  1545.60  1575.76  1615.03  1658.42
                             1703.31  1774.58  1818.19  1866.56  1886.05
                             1914.25  1939.28  1970.75  1982.82  1997.56
                             2027.48  2035.78  2039.53  2134.14  2147.02
                             2150.24  2155.98  2162.16  2165.12  2171.81
                             2176.54  2178.18  4366.80  4373.99  4380.28
                             4386.50  4387.39  4401.22  4407.38  4416.48
                             4435.40  4441.60  4450.72  4456.55  4498.32
                             4498.57  4515.07  4526.19

 Zero-point correction=                           0.219309 (Hartree/Particle)
 Thermal correction to Energy=                    0.228694
 Thermal correction to Enthalpy=                  0.229638
 Thermal correction to Gibbs Free Energy=         0.185099
 Sum of electronic and zero-point Energies=           -276.117097
 Sum of electronic and thermal Energies=              -276.107712
 Sum of electronic and thermal Enthalpies=            -276.106768
 Sum of electronic and thermal Free Energies=         -276.151307

                     E (Thermal)             CV                S
                      KCal/Mol        Cal/Mol-Kelvin    Cal/Mol-Kelvin
 Total                  143.507             33.714             93.739
 Electronic               0.000              0.000              0.000
 Translational            0.889              2.981             39.722
 Rotational               0.889              2.981             28.426
 Vibrational            141.730             27.752             25.592
 Vibration     1          0.596              1.974              4.494
 Vibration     2          0.601              1.957              3.690
 Vibration     3          0.611              1.925              2.973
 Vibration     4          0.618              1.904              2.689
 Vibration     5          0.647              1.810              1.953
 Vibration     6          0.649              1.806              1.934
 Vibration     7          0.671              1.738              1.632
 Vibration     8          0.695              1.666              1.393
 Vibration     9          0.747              1.520              1.054
 Vibration    10          0.776              1.445              0.921
 Vibration    11          0.865              1.229              0.635

 Optimization completed.
    -- Stationary point found.
 Normal termination of Gaussian 16 at Sun Sep 29 12:10:39 2019.
