 Gaussian 16, Revision A.03,
 Gaussian 16:  EM64L-G16RevA.03 25-Dec-2016

 ----------------------------------------------------------------------
 #p m062x/cc-pVTZ opt=(calcfc,maxcycles=900,Tight) freq IOP(7/33=1,2/16
 =3) scf=(maxcycle=900)
 ----------------------------------------------------------------------

 ------------------------------
 Gaussian input prepared by ASE
 ------------------------------
 Symbolic Z-matrix:
 Charge =  0 Multiplicity = 1

 SCF Done:  E(RM062X) =  -276.311325874     A.U. after   11 cycles
 SCF Done:  E(RM062X) =  -276.329183824     A.U. after   11 cycles
 SCF Done:  E(RM062X) =  -276.320535827     A.U. after   12 cycles
 SCF Done:  E(RM062X) =  -276.334006436     A.U. after   10 cycles
 SCF Done:  E(RM062X) =  -276.335265166     A.U. after   12 cycles
 SCF Done:  E(RM062X) =  -276.333245661     A.U. after   12 cycles
 SCF Done:  E(RM062X) =  -276.337932997     A.U. after    9 cycles
 SCF Done:  E(RM062X) =  -276.339058708     A.U. after    9 cycles
 SCF Done:  E(RM062X) =  -276.339566058     A.U. after    9 cycles
 SCF Done:  E(RM062X) =  -276.339810265     A.U. after    9 cycles
 SCF Done:  E(RM062X) =  -276.340139917     A.U. after    6 cycles
 SCF Done:  E(RM062X) =  -276.340140219     A.U. after    6 cycles
 SCF Done:  E(RM062X) =  -276.340140587     A.U. after    5 cycles
 SCF Done:  E(RM062X) =  -276.340141162     A.U. after    6 cycles
 SCF Done:  E(RM062X) =  -276.340141584     A.U. after    6 cycles
 SCF Done:  E(RM062X) =  -276.340142152     A.U. after    6 cycles
 SCF Done:  E(RM062X) =  -276.340142457     A.U. after    6 cycles
 SCF Done:  E(RM062X) =  -276.340142515     A.U. after    5 cycles
 SCF Done:  E(RM062X) =  -276.340142518     A.U. after    4 cycles
 Optimization completed.
    -- Stationary point found.
 Normal termination of Gaussian 16 at Sun Sep 29 02:06:35 2019.

 ----------------------------------------------------------------------
 #P Geom=AllCheck Guess=TCheck SCRF=Check Test GenChk RM062X/CC-pVTZ Fr
 eq
 ----------------------------------------------------------------------

 Structure from the checkpoint file:  "/scratch/harms.n/gauss_scrdir/Gau-11681.chk"
 ------------------------------
 Gaussian input prepared by ASE
 ------------------------------
 Charge =  0 Multiplicity = 1

                         Standard orientation:
 ---------------------------------------------------------------------
 Center     Atomic      Atomic             Coordinates (Angstroms)
 Number     Number       Type             X           Y           Z
 ---------------------------------------------------------------------
      1          6           0       -1.170465    0.676254    0.534305
      2          6           0       -0.000002    1.500939   -0.000004
      3          6           0        1.170465    0.676253   -0.534305
      4          6           0       -1.753778   -0.300606   -0.480748
      5          6           0        1.753783   -0.300597    0.480754
      6          6           0       -2.997712   -1.005434    0.045278
      7          6           0        2.997709   -1.005438   -0.045279
      8          1           0       -1.001979   -1.046443   -0.749902
      9          1           0       -1.993568    0.238817   -1.401673
     10          1           0       -1.960263    1.357606    0.861849
     11          1           0       -0.862169    0.123448    1.426223
     12          1           0        0.364235    2.155716    0.796130
     13          1           0       -0.364239    2.155711   -0.796141
     14          1           0        1.960260    1.357607   -0.861854
     15          1           0        0.862173    0.123437   -1.426219
     16          1           0        1.993586    0.238836    1.401670
     17          1           0        1.001984   -1.046429    0.749923
     18          1           0       -3.780562   -0.284265    0.284467
     19          1           0       -3.400849   -1.709427   -0.682025
     20          1           0       -2.770583   -1.559563    0.957460
     21          1           0        3.780561   -0.284277   -0.284485
     22          1           0        2.770564   -1.559576   -0.957452
     23          1           0        3.400848   -1.709426    0.682028
 ---------------------------------------------------------------------

 SCF Done:  E(RM062X) =  -276.340142518     A.U. after    1 cycles

 The electronic state is 1-A.
 Alpha  occ. eigenvalues --  -10.52633 -10.52633 -10.52479 -10.52388 -10.52380
 Alpha  occ. eigenvalues --  -10.51966 -10.51966  -0.91363  -0.87535  -0.82639
 Alpha  occ. eigenvalues --   -0.76227  -0.70498  -0.67451  -0.63043  -0.54627
 Alpha  occ. eigenvalues --   -0.53628  -0.49946  -0.49101  -0.48715  -0.47301
 Alpha  occ. eigenvalues --   -0.43269  -0.43024  -0.42582  -0.40737  -0.39094
 Alpha  occ. eigenvalues --   -0.38819  -0.37001  -0.36699  -0.36377
 Alpha virt. eigenvalues --    0.06473   0.08372   0.08431   0.08997   0.11216
 Alpha virt. eigenvalues --    0.12115   0.13215   0.14286   0.15393   0.15750
 Alpha virt. eigenvalues --    0.15865   0.16691   0.16800   0.18437   0.18790

 Mulliken charges:
               1
     1  C   -0.280320
     2  C   -0.295322
     3  C   -0.280320
     4  C   -0.247062
     5  C   -0.247063
     6  C   -0.354417
     7  C   -0.354417
     8  H    0.132133
     9  H    0.133049
    10  H    0.142277
    11  H    0.147343
    12  H    0.140610
    13  H    0.140610
    14  H    0.142278
    15  H    0.147343
    16  H    0.133049
    17  H    0.132133
    18  H    0.110185
    19  H    0.113904
    20  H    0.109958
    21  H    0.110186
    22  H    0.109958
    23  H    0.113904
 Sum of Mulliken charges =  -0.00000

 Dipole moment (field-independent basis, Debye):
    X=              0.0000    Y=              0.0463    Z=             -0.0000  Tot=              0.0463
 Quadrupole moment (field-independent basis, Debye-Ang):
   XX=            -49.4666   YY=            -48.6617   ZZ=            -48.8789
   XY=              0.0000   XZ=              0.6364   YZ=             -0.0000

  Exact polarizability:  97.033  -0.000  81.962  -0.886   0.000  76.516
 Approx polarizability:  98.060  -0.000  96.910  -0.154   0.000  97.232

                      1                      2                      3
                      A                      A                      A
 Frequencies --     60.1761                78.5397               110.1891
 Red. masses --      3.0096                 1.6971                 1.6049
 Frc consts  --      0.0064                 0.0062                 0.0115
 IR Inten    --      0.0026                 0.0018                 0.0069

                      4                      5                      6
                      A                      A                      A
 Frequencies --    204.6262               206.9232               246.8742
 Red. masses --      2.1234                 2.0851                 1.1948
 Frc consts  --      0.0524                 0.0526                 0.0429
 IR Inten    --      0.0781                 0.0040                 0.0176

                      7                      8                      9
                      A                      A                      A
 Frequencies --    257.1621               296.7511               310.7784
 Red. masses --      1.2381                 1.7470                 2.5353
 Frc consts  --      0.0482                 0.0906                 0.1443
 IR Inten    --      0.0006                 0.0802                 0.0010

                     10                     11                     12
                      A                      A                      A
 Frequencies --    428.4486               527.4947               722.4438
 Red. masses --      2.5901                 2.3626                 1.1274
 Frc consts  --      0.2801                 0.3873                 0.3467
 IR Inten    --      0.0621                 0.4674                 5.8454

                     13                     14                     15
                      A                      A                      A
 Frequencies --    751.3990               794.6190               847.8601
 Red. masses --      1.1222                 1.2690                 2.2620
 Frc consts  --      0.3733                 0.4721                 0.9581
 IR Inten    --      2.2844                 0.0381                 0.1340

                     16                     17                     18
                      A                      A                      A
 Frequencies --    882.3137               894.0464               947.3621
 Red. masses --      1.5844                 1.3447                 1.2530
 Frc consts  --      0.7267                 0.6333                 0.6626
 IR Inten    --      0.6387                 0.0370                 3.5261

                     19                     20                     21
                      A                      A                      A
 Frequencies --    970.5018              1050.7172              1058.0517
 Red. masses --      1.7598                 2.4026                 1.3087
 Frc consts  --      0.9766                 1.5628                 0.8632
 IR Inten    --      2.0098                 1.1507                 0.0913

                     22                     23                     24
                      A                      A                      A
 Frequencies --   1066.6022              1072.6576              1123.0219
 Red. masses --      1.4267                 2.3781                 2.1403
 Frc consts  --      0.9563                 1.6121                 1.5904
 IR Inten    --      0.2969                 0.0050                 0.3372

                     25                     26                     27
                      A                      A                      A
 Frequencies --   1168.4334              1176.1461              1249.0890
 Red. masses --      1.9817                 2.1830                 1.4356
 Frc consts  --      1.5940                 1.7792                 1.3197
 IR Inten    --      0.8030                 0.6240                 0.0692

                     28                     29                     30
                      A                      A                      A
 Frequencies --   1257.9118              1305.2224              1314.4385
 Red. masses --      1.4023                 1.2635                 1.3126
 Frc consts  --      1.3073                 1.2682                 1.3361
 IR Inten    --      0.1423                 2.0223                 1.5376

                     31                     32                     33
                      A                      A                      A
 Frequencies --   1329.6205              1332.0048              1347.1183
 Red. masses --      1.1580                 1.1240                 1.1894
 Frc consts  --      1.2062                 1.1750                 1.2717
 IR Inten    --      0.2632                 0.0002                 1.2977

                     34                     35                     36
                      A                      A                      A
 Frequencies --   1392.2500              1400.5754              1411.0005
 Red. masses --      1.4850                 1.5850                 1.5740
 Frc consts  --      1.6959                 1.8318                 1.8464
 IR Inten    --      2.9322                 0.6461                 0.3537

                     37                     38                     39
                      A                      A                      A
 Frequencies --   1412.9870              1414.1877              1485.0770
 Red. masses --      1.2715                 1.2867                 1.0712
 Frc consts  --      1.4957                 1.5161                 1.3919
 IR Inten    --      4.6366                 0.4411                 2.2886

                     40                     41                     42
                      A                      A                      A
 Frequencies --   1491.7260              1495.1170              1498.3331
 Red. masses --      1.0601                 1.0700                 1.0797
 Frc consts  --      1.3899                 1.4092                 1.4282
 IR Inten    --      0.1737                 2.7391                 5.1695

                     43                     44                     45
                      A                      A                      A
 Frequencies --   1503.2994              1504.0800              1504.2169
 Red. masses --      1.0642                 1.0417                 1.0524
 Frc consts  --      1.4170                 1.3885                 1.4030
 IR Inten    --      2.4831                 7.7621                 6.2673

                     46                     47                     48
                      A                      A                      A
 Frequencies --   1511.0791              1516.4790              3039.6505
 Red. masses --      1.0745                 1.0939                 1.0602
 Frc consts  --      1.4456                 1.4821                 5.7716
 IR Inten    --     12.3970                 1.0559                 0.1683

                     49                     50                     51
                      A                      A                      A
 Frequencies --   3041.4007              3045.7935              3051.3476
 Red. masses --      1.0603                 1.0631                 1.0595
 Frc consts  --      5.7785                 5.8104                 5.8120
 IR Inten    --      8.3557                11.6967                10.2675

                     52                     53                     54
                      A                      A                      A
 Frequencies --   3051.6575              3057.1140              3057.2541
 Red. masses --      1.0613                 1.0389                 1.0376
 Frc consts  --      5.8229                 5.7204                 5.7143
 IR Inten    --     48.4316                82.0979                 6.2098

                     55                     56                     57
                      A                      A                      A
 Frequencies --   3068.3634              3070.3465              3082.2397
 Red. masses --      1.0975                 1.0987                 1.0994
 Frc consts  --      6.0879                 6.1026                 6.1538
 IR Inten    --      4.6551                 1.3268                22.2419

                     58                     59                     60
                      A                      A                      A
 Frequencies --   3093.6758              3094.4644              3123.6639
 Red. masses --      1.1042                 1.1032                 1.1026
 Frc consts  --      6.2267                 6.2241                 6.3389
 IR Inten    --     62.1872                33.8355                53.4954

                     61                     62                     63
                      A                      A                      A
 Frequencies --   3124.0899              3132.6241              3132.6457
 Red. masses --      1.1026                 1.1016                 1.1016
 Frc consts  --      6.3405                 6.3692                 6.3693
 IR Inten    --     40.1817                34.2598                25.4586

 - Thermochemistry -
 -------------------
 Temperature   298.150 Kelvin.  Pressure   1.00000 Atm.
 Atom     1 has atomic number  6 and mass  12.00000

 Molecular mass:   100.12520 amu.
 Principal axes and moments of inertia in atomic units:
                           1         2         3
     Eigenvalues --   421.998671560.099051786.67348
           X            1.00000  -0.00000  -0.00256
           Y            0.00000   1.00000   0.00000
           Z            0.00256  -0.00000   1.00000
 This molecule is an asymmetric top.
 Rotational symmetry number  1.
 Rotational temperatures (Kelvin)      0.20525     0.05552     0.04848
 Rotational constants (GHZ):           4.27665     1.15681     1.01011
 Zero-point vibrational energy     575381.6 (Joules/Mol)
                                  137.51949 (Kcal/Mol)
 Warning -- explicit consideration of  11 degrees of freedom as
           vibrations may cause significant error
 Vibrational temperatures:     86.58   113.00   158.54   294.41   297.72
          (Kelvin)            355.20   370.00   426.96   447.14   616.44
                              758.95  1039.44  1081.10  1143.28  1219.88
                             1269.45  1286.33  1363.04  1396.34  1511.75
                             1522.30  1534.60  1543.31  1615.78  1681.12
                             1692.21  1797.16  1809.85  1877.92  1891.18
                             1913.03  1916.46  1938.20  2003.14  2015.12
                             2030.12  2032.97  2034.70  2136.69  2146.26
                             2151.14  2155.77  2162.91  2164.04  2164.23
                             2174.11  2181.87  4373.38  4375.90  4382.22
                             4390.21  4390.65  4398.51  4398.71  4414.69
                             4417.54  4434.66  4451.11  4452.24  4494.26
                             4494.87  4507.15  4507.18

 Zero-point correction=                           0.219151 (Hartree/Particle)
 Thermal correction to Energy=                    0.228555
 Thermal correction to Enthalpy=                  0.229499
 Thermal correction to Gibbs Free Energy=         0.184828
 Sum of electronic and zero-point Energies=           -276.120991
 Sum of electronic and thermal Energies=              -276.111587
 Sum of electronic and thermal Enthalpies=            -276.110643
 Sum of electronic and thermal Free Energies=         -276.155314

                     E (Thermal)             CV                S
                      KCal/Mol        Cal/Mol-Kelvin    Cal/Mol-Kelvin
 Total                  143.420             33.773             94.018
 Electronic               0.000              0.000              0.000
 Translational            0.889              2.981             39.722
 Rotational               0.889              2.981             28.555
 Vibrational            141.643             27.811             25.741
 Vibration     1          0.597              1.973              4.451
 Vibration     2          0.600              1.964              3.927
 Vibration     3          0.606              1.941              3.266
 Vibration     4          0.640              1.833              2.091
 Vibration     5          0.641              1.830              2.071
 Vibration     6          0.661              1.768              1.753
 Vibration     7          0.667              1.751              1.681
 Vibration     8          0.690              1.680              1.435
 Vibration     9          0.700              1.653              1.358
 Vibration    10          0.790              1.408              0.864
 Vibration    11          0.882              1.189              0.593

                           ! Non-Optimized Parameters !
 Normal termination of Gaussian 16 at Sun Sep 29 05:46:44 2019.
