 Gaussian 16, Revision A.03,
 Gaussian 16:  EM64L-G16RevA.03 25-Dec-2016

 ----------------------------------------------------------------------
 #p m062x/cc-pVTZ opt=(calcfc,maxcycles=900,Tight) freq IOP(7/33=1,2/16
 =3) scf=(maxcycle=900)
 ----------------------------------------------------------------------

 ------------------------------
 Gaussian input prepared by ASE
 ------------------------------
 Symbolic Z-matrix:
 Charge =  0 Multiplicity = 1

 SCF Done:  E(RM062X) =  -276.324108414     A.U. after   11 cycles
 SCF Done:  E(RM062X) =  -276.335036262     A.U. after   10 cycles
 SCF Done:  E(RM062X) =  -276.338262316     A.U. after   11 cycles
 SCF Done:  E(RM062X) =  -276.339976027     A.U. after   11 cycles
 SCF Done:  E(RM062X) =  -276.323485268     A.U. after   10 cycles
 SCF Done:  E(RM062X) =  -276.340216252     A.U. after    9 cycles
 SCF Done:  E(RM062X) =  -276.340082341     A.U. after    9 cycles
 SCF Done:  E(RM062X) =  -276.340260222     A.U. after    9 cycles
 SCF Done:  E(RM062X) =  -276.340261916     A.U. after    7 cycles
 SCF Done:  E(RM062X) =  -276.340262012     A.U. after    5 cycles
 SCF Done:  E(RM062X) =  -276.340262103     A.U. after    5 cycles
 SCF Done:  E(RM062X) =  -276.340262139     A.U. after    4 cycles
 SCF Done:  E(RM062X) =  -276.340262144     A.U. after    4 cycles
 SCF Done:  E(RM062X) =  -276.340262144     A.U. after    3 cycles
 SCF Done:  E(RM062X) =  -276.340262145     A.U. after    3 cycles
 Optimization completed.
    -- Stationary point found.
 Normal termination of Gaussian 16 at Sun Sep 29 09:32:57 2019.

 ----------------------------------------------------------------------
 #P Geom=AllCheck Guess=TCheck SCRF=Check Test GenChk RM062X/CC-pVTZ Fr
 eq
 ----------------------------------------------------------------------

 Structure from the checkpoint file:  "/scratch/harms.n/gauss_scrdir/Gau-11263.chk"
 ------------------------------
 Gaussian input prepared by ASE
 ------------------------------
 Charge =  0 Multiplicity = 1

                         Standard orientation:
 ---------------------------------------------------------------------
 Center     Atomic      Atomic             Coordinates (Angstroms)
 Number     Number       Type             X           Y           Z
 ---------------------------------------------------------------------
      1          6           0        1.400865    0.761422   -0.317362
      2          6           0       -0.022000    1.051165    0.153141
      3          6           0       -1.020381   -0.057633   -0.161224
      4          6           0        2.035885   -0.463683    0.332535
      5          6           0       -2.454134    0.318319    0.193068
      6          6           0        3.495425   -0.637390   -0.068326
      7          6           0       -3.444906   -0.799223   -0.106208
      8          1           0        1.476340   -1.359951    0.057980
      9          1           0        1.958429   -0.372173    1.419816
     10          1           0        2.030398    1.631840   -0.113112
     11          1           0        1.403224    0.630181   -1.404277
     12          1           0       -0.369980    1.978424   -0.310014
     13          1           0       -0.015772    1.231363    1.232862
     14          1           0       -0.750371   -0.968827    0.379159
     15          1           0       -0.963740   -0.304518   -1.226955
     16          1           0       -2.503178    0.581256    1.253108
     17          1           0       -2.735288    1.219006   -0.358793
     18          1           0        3.588969   -0.742214   -1.150392
     19          1           0        4.085944    0.229827    0.230770
     20          1           0        3.938196   -1.519853    0.392467
     21          1           0       -3.197716   -1.698430    0.460022
     22          1           0       -3.425211   -1.060798   -1.165264
     23          1           0       -4.464769   -0.512994    0.148877
 ---------------------------------------------------------------------

 SCF Done:  E(RM062X) =  -276.340262145     A.U. after    1 cycles

 The electronic state is 1-A.
 Alpha  occ. eigenvalues --  -10.52620 -10.52577 -10.52476 -10.52439 -10.52393
 Alpha  occ. eigenvalues --  -10.51937 -10.51934  -0.91231  -0.87784  -0.82672
 Alpha  occ. eigenvalues --   -0.76262  -0.69947  -0.66820  -0.64332  -0.54735
 Alpha  occ. eigenvalues --   -0.53204  -0.49876  -0.49500  -0.48754  -0.45643
 Alpha  occ. eigenvalues --   -0.45151  -0.43369  -0.41328  -0.40217  -0.39679
 Alpha  occ. eigenvalues --   -0.38402  -0.37649  -0.36676  -0.36369
 Alpha virt. eigenvalues --    0.07047   0.07928   0.08990   0.09347   0.10450
 Alpha virt. eigenvalues --    0.12189   0.12893   0.14288   0.14707   0.15216
 Alpha virt. eigenvalues --    0.16174   0.16671   0.17691   0.18379   0.18763

 Mulliken charges:
               1
     1  C   -0.261060
     2  C   -0.269729
     3  C   -0.256392
     4  C   -0.241377
     5  C   -0.231812
     6  C   -0.353419
     7  C   -0.352044
     8  H    0.130983
     9  H    0.126817
    10  H    0.131467
    11  H    0.133454
    12  H    0.132708
    13  H    0.135027
    14  H    0.136676
    15  H    0.131028
    16  H    0.121604
    17  H    0.122052
    18  H    0.109450
    19  H    0.109517
    20  H    0.113592
    21  H    0.108725
    22  H    0.109079
    23  H    0.113654
 Sum of Mulliken charges =  -0.00000

 Dipole moment (field-independent basis, Debye):
    X=             -0.0299    Y=              0.0351    Z=              0.0386  Tot=              0.0601
 Quadrupole moment (field-independent basis, Debye-Ang):
   XX=            -49.8521   YY=            -49.0042   ZZ=            -48.2743
   XY=             -0.2174   XZ=              0.2825   YZ=             -0.1562

  Exact polarizability: 103.167   0.028  79.882  -0.644   0.248  74.957
 Approx polarizability:  98.182  -0.121  96.896  -0.222   0.172  96.930

                      1                      2                      3
                      A                      A                      A
 Frequencies --     66.4945                72.6347                97.3254
 Red. masses --      1.7175                 1.7622                 2.6356
 Frc consts  --      0.0045                 0.0055                 0.0147
 IR Inten    --      0.0043                 0.0147                 0.0008

                      4                      5                      6
                      A                      A                      A
 Frequencies --    125.9696               206.2895               241.3056
 Red. masses --      2.2821                 2.0704                 1.2980
 Frc consts  --      0.0213                 0.0519                 0.0445
 IR Inten    --      0.0096                 0.0187                 0.0132

                      7                      8                      9
                      A                      A                      A
 Frequencies --    247.9829               274.2757               311.4538
 Red. masses --      1.1188                 1.7168                 3.0665
 Frc consts  --      0.0405                 0.0761                 0.1753
 IR Inten    --      0.0013                 0.0472                 0.0277

                     10                     11                     12
                      A                      A                      A
 Frequencies --    406.9538               516.6603               729.8482
 Red. masses --      2.5476                 2.5761                 1.1107
 Frc consts  --      0.2486                 0.4052                 0.3486
 IR Inten    --      0.0581                 0.0424                 4.1818

                     13                     14                     15
                      A                      A                      A
 Frequencies --    746.7530               785.4669               854.3921
 Red. masses --      1.1070                 1.2269                 1.3354
 Frc consts  --      0.3637                 0.4460                 0.5744
 IR Inten    --      1.5485                 0.4962                 0.0776

                     16                     17                     18
                      A                      A                      A
 Frequencies --    870.4754               918.5446               944.4132
 Red. masses --      1.7907                 1.5798                 1.2244
 Frc consts  --      0.7994                 0.7853                 0.6434
 IR Inten    --      0.1896                 3.1923                 2.8856

                     19                     20                     21
                      A                      A                      A
 Frequencies --    987.9449              1040.4911              1057.7673
 Red. masses --      2.1303                 1.2248                 2.6765
 Frc consts  --      1.2251                 0.7813                 1.7644
 IR Inten    --      0.6395                 1.0540                 0.2491

                     22                     23                     24
                      A                      A                      A
 Frequencies --   1073.3687              1094.6253              1111.0895
 Red. masses --      2.0824                 1.8525                 2.0764
 Frc consts  --      1.4135                 1.3078                 1.5103
 IR Inten    --      0.5191                 0.5857                 0.2296

                     25                     26                     27
                      A                      A                      A
 Frequencies --   1164.9117              1196.9205              1244.5889
 Red. masses --      2.3358                 2.0011                 1.4502
 Frc consts  --      1.8676                 1.6891                 1.3235
 IR Inten    --      1.4598                 0.1458                 0.4259

                     28                     29                     30
                      A                      A                      A
 Frequencies --   1271.1978              1296.0782              1310.8541
 Red. masses --      1.3622                 1.2781                 1.3078
 Frc consts  --      1.2969                 1.2650                 1.3241
 IR Inten    --      0.6238                 0.5391                 1.1930

                     31                     32                     33
                      A                      A                      A
 Frequencies --   1331.6916              1333.4276              1344.3809
 Red. masses --      1.1535                 1.0904                 1.1375
 Frc consts  --      1.2053                 1.1423                 1.2112
 IR Inten    --      0.4115                 0.9326                 0.7624

                     34                     35                     36
                      A                      A                      A
 Frequencies --   1377.8312              1405.5205              1410.4291
 Red. masses --      1.4249                 1.6331                 1.6166
 Frc consts  --      1.5938                 1.9009                 1.8948
 IR Inten    --      0.1713                 0.1208                 1.9558

                     37                     38                     39
                      A                      A                      A
 Frequencies --   1414.4135              1415.4121              1485.1218
 Red. masses --      1.2770                 1.2966                 1.0758
 Frc consts  --      1.5052                 1.5304                 1.3980
 IR Inten    --      4.4222                 2.4550                 2.0670

                     40                     41                     42
                      A                      A                      A
 Frequencies --   1489.4882              1492.2517              1498.5961
 Red. masses --      1.0713                 1.0687                 1.0665
 Frc consts  --      1.4003                 1.4021                 1.4112
 IR Inten    --      0.4031                 0.8576                 0.9277

                     43                     44                     45
                      A                      A                      A
 Frequencies --   1502.7243              1504.2436              1504.5476
 Red. masses --      1.0758                 1.0393                 1.0398
 Frc consts  --      1.4313                 1.3856                 1.3868
 IR Inten    --      1.0287                 6.0121                 8.7535

                     46                     47                     48
                      A                      A                      A
 Frequencies --   1512.7302              1514.8848              3030.8353
 Red. masses --      1.0857                 1.0905                 1.0617
 Frc consts  --      1.4638                 1.4745                 5.7463
 IR Inten    --      7.1986                 6.1138                 0.1808

                     49                     50                     51
                      A                      A                      A
 Frequencies --   3035.4510              3039.2372              3050.1486
 Red. masses --      1.0629                 1.0609                 1.0627
 Frc consts  --      5.7700                 5.7735                 5.8252
 IR Inten    --      8.2814                19.3138                30.8741

                     52                     53                     54
                      A                      A                      A
 Frequencies --   3050.3993              3057.3125              3057.5588
 Red. masses --      1.0607                 1.0367                 1.0368
 Frc consts  --      5.8152                 5.7094                 5.7106
 IR Inten    --     41.6463                48.1934                25.1792

                     55                     56                     57
                      A                      A                      A
 Frequencies --   3063.0468              3070.0771              3077.7440
 Red. masses --      1.0962                 1.0957                 1.1026
 Frc consts  --      6.0598                 6.0849                 6.1537
 IR Inten    --      2.4033                13.6549                 3.3972

                     58                     59                     60
                      A                      A                      A
 Frequencies --   3094.2645              3097.1432              3124.9153
 Red. masses --      1.1044                 1.1012                 1.1028
 Frc consts  --      6.2298                 6.2234                 6.3447
 IR Inten    --     55.3815                30.3935                59.1352

                     61                     62                     63
                      A                      A                      A
 Frequencies --   3125.5417              3132.3024              3132.3571
 Red. masses --      1.1027                 1.1016                 1.1016
 Frc consts  --      6.3470                 6.3682                 6.3684
 IR Inten    --     35.6804                21.2668                42.6499

 - Thermochemistry -
 -------------------
 Temperature   298.150 Kelvin.  Pressure   1.00000 Atm.
 Atom     1 has atomic number  6 and mass  12.00000

 Molecular mass:   100.12520 amu.
 Principal axes and moments of inertia in atomic units:
                           1         2         3
     Eigenvalues --   261.454722065.476952213.00520
           X            1.00000   0.00115  -0.00050
           Y           -0.00115   0.99999   0.00517
           Z            0.00051  -0.00517   0.99999
 This molecule is an asymmetric top.
 Rotational symmetry number  1.
 Rotational temperatures (Kelvin)      0.33128     0.04193     0.03914
 Rotational constants (GHZ):           6.90269     0.87376     0.81552
 Zero-point vibrational energy     574465.3 (Joules/Mol)
                                  137.30051 (Kcal/Mol)
 Warning -- explicit consideration of  11 degrees of freedom as
           vibrations may cause significant error
 Vibrational temperatures:     95.67   104.51   140.03   181.24   296.80
          (Kelvin)            347.18   356.79   394.62   448.11   585.52
                              743.36  1050.09  1074.41  1130.11  1229.28
                             1252.42  1321.58  1358.80  1421.43  1497.03
                             1521.89  1544.34  1574.92  1598.61  1676.05
                             1722.10  1790.69  1828.97  1864.77  1886.03
                             1916.01  1918.50  1934.26  1982.39  2022.23
                             2029.29  2035.03  2036.46  2136.76  2143.04
                             2147.02  2156.15  2162.09  2164.27  2164.71
                             2176.48  2179.58  4360.70  4367.34  4372.78
                             4388.48  4388.84  4398.79  4399.15  4407.04
                             4417.16  4428.19  4451.96  4456.10  4496.06
                             4496.96  4506.68  4506.76

 Zero-point correction=                           0.218802 (Hartree/Particle)
 Thermal correction to Energy=                    0.228434
 Thermal correction to Enthalpy=                  0.229378
 Thermal correction to Gibbs Free Energy=         0.184017
 Sum of electronic and zero-point Energies=           -276.121460
 Sum of electronic and thermal Energies=              -276.111829
 Sum of electronic and thermal Enthalpies=            -276.110884
 Sum of electronic and thermal Free Energies=         -276.156246

                     E (Thermal)             CV                S
                      KCal/Mol        Cal/Mol-Kelvin    Cal/Mol-Kelvin
 Total                  143.344             33.969             95.471
 Electronic               0.000              0.000              0.000
 Translational            0.889              2.981             39.722
 Rotational               0.889              2.981             28.571
 Vibrational            141.567             28.007             27.178
 Vibration     1          0.598              1.970              4.255
 Vibration     2          0.599              1.967              4.081
 Vibration     3          0.603              1.951              3.507
 Vibration     4          0.611              1.927              3.007
 Vibration     5          0.641              1.831              2.076
 Vibration     6          0.658              1.777              1.793
 Vibration     7          0.662              1.766              1.745
 Vibration     8          0.677              1.721              1.569
 Vibration     9          0.700              1.652              1.355
 Vibration    10          0.772              1.455              0.937
 Vibration    11          0.872              1.213              0.618

                           ! Non-Optimized Parameters !
 Normal termination of Gaussian 16 at Sun Sep 29 12:25:07 2019.
