 Gaussian 16, Revision A.03,
 Gaussian 16:  EM64L-G16RevA.03 25-Dec-2016

 ----------------------------------------------------------------------
 #p m062x/cc-pVTZ opt=(calcfc,maxcycles=900,Tight) freq IOP(7/33=1,2/16
 =3) scf=(maxcycle=900)
 ----------------------------------------------------------------------

 ------------------------------
 Gaussian input prepared by ASE
 ------------------------------
 Symbolic Z-matrix:
 Charge =  0 Multiplicity = 1

 SCF Done:  E(RM062X) =  -276.316224573     A.U. after   11 cycles
 SCF Done:  E(RM062X) =  -276.330227897     A.U. after   12 cycles
 SCF Done:  E(RM062X) =  -276.303295267     A.U. after   11 cycles
 SCF Done:  E(RM062X) =  -276.331861744     A.U. after   10 cycles
 SCF Done:  E(RM062X) =  -276.320725128     A.U. after   10 cycles
 SCF Done:  E(RM062X) =  -276.332757570     A.U. after    9 cycles
 SCF Done:  E(RM062X) =  -276.333300554     A.U. after   10 cycles
 SCF Done:  E(RM062X) =  -276.334938264     A.U. after   10 cycles
 SCF Done:  E(RM062X) =  -276.336094691     A.U. after    9 cycles
 SCF Done:  E(RM062X) =  -276.337036305     A.U. after   10 cycles
 SCF Done:  E(RM062X) =  -276.337203243     A.U. after    8 cycles
 SCF Done:  E(RM062X) =  -276.337204802     A.U. after    7 cycles
 SCF Done:  E(RM062X) =  -276.337205391     A.U. after    6 cycles
 SCF Done:  E(RM062X) =  -276.337205608     A.U. after    6 cycles
 SCF Done:  E(RM062X) =  -276.337205637     A.U. after    5 cycles
 SCF Done:  E(RM062X) =  -276.337205645     A.U. after    5 cycles
 SCF Done:  E(RM062X) =  -276.337205652     A.U. after    5 cycles
 SCF Done:  E(RM062X) =  -276.337205656     A.U. after    4 cycles
 SCF Done:  E(RM062X) =  -276.337205657     A.U. after    2 cycles
 Optimization completed.
    -- Stationary point found.
 Normal termination of Gaussian 16 at Sun Sep 29 04:48:59 2019.

 ----------------------------------------------------------------------
 #P Geom=AllCheck Guess=TCheck SCRF=Check Test GenChk RM062X/CC-pVTZ Fr
 eq
 ----------------------------------------------------------------------

 Structure from the checkpoint file:  "/scratch/harms.n/gauss_scrdir/Gau-3470.chk"
 ------------------------------
 Gaussian input prepared by ASE
 ------------------------------
 Charge =  0 Multiplicity = 1

                         Standard orientation:
 ---------------------------------------------------------------------
 Center     Atomic      Atomic             Coordinates (Angstroms)
 Number     Number       Type             X           Y           Z
 ---------------------------------------------------------------------
      1          6           0       -1.462059   -0.784549   -0.577979
      2          6           0       -0.357476   -1.555457    0.149362
      3          6           0        0.831241   -0.722101    0.621971
      4          6           0       -2.104082    0.343471    0.241797
      5          6           0        1.616633   -0.062856   -0.506238
      6          6           0       -1.461594    1.715062    0.046312
      7          6           0        2.782215    0.768902    0.013488
      8          1           0       -2.084367    0.073640    1.301787
      9          1           0       -3.158292    0.423939   -0.028521
     10          1           0       -2.232281   -1.505565   -0.857542
     11          1           0       -1.081194   -0.375957   -1.517901
     12          1           0        0.008552   -2.349582   -0.507592
     13          1           0       -0.802947   -2.053764    1.014576
     14          1           0        1.510194   -1.366253    1.187476
     15          1           0        0.491586    0.041876    1.327459
     16          1           0        1.984775   -0.838897   -1.182958
     17          1           0        0.956060    0.571836   -1.100530
     18          1           0       -1.489596    2.001602   -1.006440
     19          1           0       -1.992538    2.480301    0.612691
     20          1           0       -0.419538    1.732812    0.363167
     21          1           0        3.466507    0.155174    0.601293
     22          1           0        2.423838    1.572555    0.659572
     23          1           0        3.349970    1.221451   -0.798808
 ---------------------------------------------------------------------

 SCF Done:  E(RM062X) =  -276.337205657     A.U. after    1 cycles

 The electronic state is 1-A.
 Alpha  occ. eigenvalues --  -10.52712 -10.52551 -10.52500 -10.52425 -10.52399
 Alpha  occ. eigenvalues --  -10.51977 -10.51976  -0.91284  -0.87313  -0.82564
 Alpha  occ. eigenvalues --   -0.76701  -0.70342  -0.67390  -0.63008  -0.55312
 Alpha  occ. eigenvalues --   -0.52262  -0.50770  -0.49840  -0.47897  -0.46329
 Alpha  occ. eigenvalues --   -0.44829  -0.43068  -0.42203  -0.40128  -0.39925
 Alpha  occ. eigenvalues --   -0.38592  -0.36684  -0.36407  -0.36358
 Alpha virt. eigenvalues --    0.06731   0.08104   0.08804   0.08988   0.11834
 Alpha virt. eigenvalues --    0.12180   0.13011   0.13428   0.14488   0.15692
 Alpha virt. eigenvalues --    0.15948   0.16915   0.17454   0.18049   0.19467

 Mulliken charges:
               1
     1  C   -0.280235
     2  C   -0.283021
     3  C   -0.297187
     4  C   -0.247492
     5  C   -0.278912
     6  C   -0.390804
     7  C   -0.349778
     8  H    0.135057
     9  H    0.129594
    10  H    0.138672
    11  H    0.143228
    12  H    0.138994
    13  H    0.142122
    14  H    0.147357
    15  H    0.151993
    16  H    0.138379
    17  H    0.147749
    18  H    0.123867
    19  H    0.122868
    20  H    0.126992
    21  H    0.111991
    22  H    0.113232
    23  H    0.115333
 Sum of Mulliken charges =  -0.00000

 Dipole moment (field-independent basis, Debye):
    X=             -0.0996    Y=             -0.1026    Z=             -0.0356  Tot=              0.1473
 Quadrupole moment (field-independent basis, Debye-Ang):
   XX=            -48.7374   YY=            -49.0287   ZZ=            -48.8019
   XY=             -0.4538   XZ=             -0.2087   YZ=             -0.0648

  Exact polarizability:  92.775   1.223  85.149   0.073   0.191  75.663
 Approx polarizability:  97.953  -0.090  97.415  -0.157   0.163  97.346

                      1                      2                      3
                      A                      A                      A
 Frequencies --     63.0414                81.1773               138.5151
 Red. masses --      2.4861                 1.7316                 1.7716
 Frc consts  --      0.0058                 0.0067                 0.0200
 IR Inten    --      0.0041                 0.0327                 0.0168

                      4                      5                      6
                      A                      A                      A
 Frequencies --    196.3623               223.2341               239.8887
 Red. masses --      2.1774                 2.0057                 1.1628
 Frc consts  --      0.0495                 0.0589                 0.0394
 IR Inten    --      0.0494                 0.0289                 0.1515

                      7                      8                      9
                      A                      A                      A
 Frequencies --    271.7127               301.8135               365.5201
 Red. masses --      1.4199                 2.0453                 1.8778
 Frc consts  --      0.0618                 0.1098                 0.1478
 IR Inten    --      0.0317                 0.0677                 0.2591

                     10                     11                     12
                      A                      A                      A
 Frequencies --    420.4554               504.1389               735.0720
 Red. masses --      2.1203                 2.0500                 1.1362
 Frc consts  --      0.2208                 0.3070                 0.3617
 IR Inten    --      0.0644                 0.3964                 6.2685

                     13                     14                     15
                      A                      A                      A
 Frequencies --    751.1367               792.9398               833.6420
 Red. masses --      1.3667                 1.3413                 1.8996
 Frc consts  --      0.4543                 0.4969                 0.7778
 IR Inten    --      1.7457                 1.4182                 0.6207

                     16                     17                     18
                      A                      A                      A
 Frequencies --    867.5212               903.4348               954.6080
 Red. masses --      1.7776                 1.4375                 1.5046
 Frc consts  --      0.7882                 0.6913                 0.8078
 IR Inten    --      0.8682                 1.3400                 2.0738

                     19                     20                     21
                      A                      A                      A
 Frequencies --    964.3907              1043.7387              1060.6978
 Red. masses --      1.5665                 2.0942                 1.3780
 Frc consts  --      0.8584                 1.3442                 0.9135
 IR Inten    --      1.7629                 1.1152                 0.2968

                     22                     23                     24
                      A                      A                      A
 Frequencies --   1065.5628              1080.8611              1129.8181
 Red. masses --      1.6749                 1.8079                 1.8638
 Frc consts  --      1.1205                 1.2444                 1.4018
 IR Inten    --      0.3944                 0.0902                 0.1958

                     25                     26                     27
                      A                      A                      A
 Frequencies --   1152.3642              1177.3944              1238.3154
 Red. masses --      2.0430                 2.1013                 1.3605
 Frc consts  --      1.5985                 1.7163                 1.2292
 IR Inten    --      1.7601                 0.2374                 0.1867

                     28                     29                     30
                      A                      A                      A
 Frequencies --   1253.2847              1305.5325              1306.7381
 Red. masses --      1.3859                 1.2061                 1.2386
 Frc consts  --      1.2825                 1.2112                 1.2461
 IR Inten    --      0.5206                 0.0400                 1.4209

                     31                     32                     33
                      A                      A                      A
 Frequencies --   1328.2421              1340.3887              1370.3958
 Red. masses --      1.1591                 1.1540                 1.3124
 Frc consts  --      1.2048                 1.2216                 1.4522
 IR Inten    --      0.9262                 1.4259                 1.5557

                     34                     35                     36
                      A                      A                      A
 Frequencies --   1388.7416              1396.9348              1407.5636
 Red. masses --      1.5365                 1.4683                 1.5824
 Frc consts  --      1.7459                 1.6881                 1.8471
 IR Inten    --      0.0729                 1.8648                 0.7255

                     37                     38                     39
                      A                      A                      A
 Frequencies --   1414.0242              1416.1356              1487.4208
 Red. masses --      1.2554                 1.2872                 1.0725
 Frc consts  --      1.4789                 1.5209                 1.3981
 IR Inten    --      3.6290                 3.4992                 1.4376

                     40                     41                     42
                      A                      A                      A
 Frequencies --   1489.5502              1492.0122              1498.6592
 Red. masses --      1.0626                 1.0621                 1.0728
 Frc consts  --      1.3891                 1.3930                 1.4196
 IR Inten    --      3.3490                 2.5579                 2.8560

                     43                     44                     45
                      A                      A                      A
 Frequencies --   1502.6637              1504.1260              1507.9458
 Red. masses --      1.0527                 1.0721                 1.0741
 Frc consts  --      1.4005                 1.4290                 1.4390
 IR Inten    --      5.4072                 3.1702                 8.1864

                     46                     47                     48
                      A                      A                      A
 Frequencies --   1510.8867              1519.5009              3040.5296
 Red. masses --      1.0542                 1.0798                 1.0609
 Frc consts  --      1.4178                 1.4689                 5.7786
 IR Inten    --     10.9307                 5.7441                16.7977

                     49                     50                     51
                      A                      A                      A
 Frequencies --   3044.0313              3047.7689              3052.2037
 Red. masses --      1.0621                 1.0653                 1.0515
 Frc consts  --      5.7986                 5.8303                 5.7713
 IR Inten    --     12.7322                14.9632                 9.1672

                     52                     53                     54
                      A                      A                      A
 Frequencies --   3054.0381              3056.4305              3061.8558
 Red. masses --      1.0633                 1.0502                 1.0391
 Frc consts  --      5.8431                 5.7805                 5.7394
 IR Inten    --     14.1747                50.4952                16.4376

                     55                     56                     57
                      A                      A                      A
 Frequencies --   3071.5326              3080.0116              3089.2454
 Red. masses --      1.0971                 1.0973                 1.0985
 Frc consts  --      6.0983                 6.1334                 6.1768
 IR Inten    --      8.9202                30.7895                32.4364

                     58                     59                     60
                      A                      A                      A
 Frequencies --   3093.7262              3096.5428              3121.4768
 Red. masses --      1.1012                 1.1001                 1.1025
 Frc consts  --      6.2097                 6.2147                 6.3290
 IR Inten    --     51.3764                37.8073                56.3151

                     61                     62                     63
                      A                      A                      A
 Frequencies --   3124.8475              3132.7998              3143.7589
 Red. masses --      1.1014                 1.1014                 1.0998
 Frc consts  --      6.3367                 6.3688                 6.4043
 IR Inten    --     29.7361                30.3841                30.1214

 - Thermochemistry -
 -------------------
 Temperature   298.150 Kelvin.  Pressure   1.00000 Atm.
 Atom     1 has atomic number  6 and mass  12.00000

 Molecular mass:   100.12520 amu.
 Principal axes and moments of inertia in atomic units:
                           1         2         3
     Eigenvalues --   523.985501180.419241507.29676
           X            1.00000   0.00297   0.00106
           Y           -0.00297   0.99999   0.00154
           Z           -0.00105  -0.00154   1.00000
 This molecule is an asymmetric top.
 Rotational symmetry number  1.
 Warning -- assumption of classical behavior for rotation
           may cause significant error
 Rotational temperatures (Kelvin)      0.16530     0.07338     0.05746
 Rotational constants (GHZ):           3.44426     1.52890     1.19734
 Zero-point vibrational energy     576055.2 (Joules/Mol)
                                  137.68049 (Kcal/Mol)
 Warning -- explicit consideration of  11 degrees of freedom as
           vibrations may cause significant error
 Vibrational temperatures:     90.70   116.80   199.29   282.52   321.18
          (Kelvin)            345.15   390.93   434.24   525.90   604.94
                              725.34  1057.60  1080.72  1140.86  1199.42
                             1248.17  1299.84  1373.47  1387.54  1501.71
                             1526.11  1533.11  1555.12  1625.56  1658.00
                             1694.01  1781.66  1803.20  1878.37  1880.10
                             1911.04  1928.52  1971.69  1998.09  2009.88
                             2025.17  2034.47  2037.50  2140.07  2143.13
                             2146.67  2156.24  2162.00  2164.10  2169.60
                             2173.83  2186.22  4374.64  4379.68  4385.06
                             4391.44  4394.08  4397.52  4405.33  4419.25
                             4431.45  4444.74  4451.18  4455.23  4491.11
                             4495.96  4507.40  4523.17

 Zero-point correction=                           0.219408 (Hartree/Particle)
 Thermal correction to Energy=                    0.228683
 Thermal correction to Enthalpy=                  0.229628
 Thermal correction to Gibbs Free Energy=         0.185498
 Sum of electronic and zero-point Energies=           -276.117798
 Sum of electronic and thermal Energies=              -276.108522
 Sum of electronic and thermal Enthalpies=            -276.107578
 Sum of electronic and thermal Free Energies=         -276.151708

                     E (Thermal)             CV                S
                      KCal/Mol        Cal/Mol-Kelvin    Cal/Mol-Kelvin
 Total                  143.501             33.680             92.878
 Electronic               0.000              0.000              0.000
 Translational            0.889              2.981             39.722
 Rotational               0.889              2.981             28.324
 Vibrational            141.724             27.719             24.833
 Vibration     1          0.597              1.972              4.360
 Vibration     2          0.600              1.962              3.862
 Vibration     3          0.614              1.915              2.824
 Vibration     4          0.636              1.845              2.167
 Vibration     5          0.649              1.806              1.933
 Vibration     6          0.657              1.779              1.804
 Vibration     7          0.675              1.725              1.585
 Vibration     8          0.694              1.670              1.407
 Vibration     9          0.739              1.543              1.099
 Vibration    10          0.783              1.426              0.890
 Vibration    11          0.859              1.241              0.648

 Optimization completed.
    -- Stationary point found.
 Normal termination of Gaussian 16 at Sun Sep 29 08:42:40 2019.
