 Gaussian 16, Revision A.03,
 Gaussian 16:  EM64L-G16RevA.03 25-Dec-2016

 ----------------------------------------------------------------------
 #p m062x/cc-pVTZ opt=(calcfc,maxcycles=900,Tight) freq IOP(7/33=1,2/16
 =3) scf=(maxcycle=900)
 ----------------------------------------------------------------------

 ------------------------------
 Gaussian input prepared by ASE
 ------------------------------
 Symbolic Z-matrix:
 Charge =  0 Multiplicity = 1

 SCF Done:  E(RM062X) =  -276.306674739     A.U. after   11 cycles
 SCF Done:  E(RM062X) =  -276.323383419     A.U. after   10 cycles
 SCF Done:  E(RM062X) =  -276.329999650     A.U. after   12 cycles
 SCF Done:  E(RM062X) =  -276.335334624     A.U. after   12 cycles
 SCF Done:  E(RM062X) =  -276.336653030     A.U. after   10 cycles
 SCF Done:  E(RM062X) =  -276.336305056     A.U. after   10 cycles
 SCF Done:  E(RM062X) =  -276.337655051     A.U. after   10 cycles
 SCF Done:  E(RM062X) =  -276.338138206     A.U. after    9 cycles
 SCF Done:  E(RM062X) =  -276.338900252     A.U. after    9 cycles
 SCF Done:  E(RM062X) =  -276.339017576     A.U. after    9 cycles
 SCF Done:  E(RM062X) =  -276.339121022     A.U. after    7 cycles
 SCF Done:  E(RM062X) =  -276.339123008     A.U. after    6 cycles
 SCF Done:  E(RM062X) =  -276.339123935     A.U. after    7 cycles
 SCF Done:  E(RM062X) =  -276.339123957     A.U. after    5 cycles
 SCF Done:  E(RM062X) =  -276.339123970     A.U. after    5 cycles
 SCF Done:  E(RM062X) =  -276.339123969     A.U. after    4 cycles
 SCF Done:  E(RM062X) =  -276.339123970     A.U. after    3 cycles
 SCF Done:  E(RM062X) =  -276.339123968     A.U. after    3 cycles
 SCF Done:  E(RM062X) =  -276.339123970     A.U. after    3 cycles
 Optimization completed.
    -- Stationary point found.
 Normal termination of Gaussian 16 at Sun Sep 29 07:34:17 2019.

 ----------------------------------------------------------------------
 #P Geom=AllCheck Guess=TCheck SCRF=Check Test GenChk RM062X/CC-pVTZ Fr
 eq
 ----------------------------------------------------------------------

 Structure from the checkpoint file:  "/scratch/harms.n/gauss_scrdir/Gau-39427.chk"
 ------------------------------
 Gaussian input prepared by ASE
 ------------------------------
 Charge =  0 Multiplicity = 1

                         Standard orientation:
 ---------------------------------------------------------------------
 Center     Atomic      Atomic             Coordinates (Angstroms)
 Number     Number       Type             X           Y           Z
 ---------------------------------------------------------------------
      1          6           0       -0.781572   -0.242343   -0.594886
      2          6           0       -0.050212    0.562285    0.474468
      3          6           0        1.273868    1.159020   -0.003818
      4          6           0       -2.117543   -0.817985   -0.128042
      5          6           0        2.285201    0.140577   -0.531396
      6          6           0       -3.153870    0.243194    0.226424
      7          6           0        2.609766   -0.960518    0.471672
      8          1           0       -1.944614   -1.463609    0.737496
      9          1           0       -2.519043   -1.460152   -0.914335
     10          1           0       -0.144359   -1.064902   -0.927968
     11          1           0       -0.947406    0.393128   -1.471718
     12          1           0        0.121962   -0.076335    1.346120
     13          1           0       -0.687874    1.378536    0.818783
     14          1           0        1.730060    1.709011    0.823775
     15          1           0        1.068145    1.893437   -0.787155
     16          1           0        1.915052   -0.305545   -1.456890
     17          1           0        3.202360    0.669184   -0.797936
     18          1           0       -2.850463    0.830312    1.092566
     19          1           0       -3.300973    0.932113   -0.607560
     20          1           0       -4.117134   -0.209842    0.458954
     21          1           0        1.741729   -1.591232    0.667494
     22          1           0        2.929615   -0.534760    1.424775
     23          1           0        3.409116   -1.604724    0.107062
 ---------------------------------------------------------------------

 SCF Done:  E(RM062X) =  -276.339123970     A.U. after    1 cycles

 The electronic state is 1-A.
 Alpha  occ. eigenvalues --  -10.52665 -10.52559 -10.52458 -10.52435 -10.52323
 Alpha  occ. eigenvalues --  -10.51951 -10.51899  -0.91310  -0.87600  -0.81997
 Alpha  occ. eigenvalues --   -0.76594  -0.71640  -0.66347  -0.62758  -0.54646
 Alpha  occ. eigenvalues --   -0.52953  -0.51678  -0.49442  -0.47872  -0.46215
 Alpha  occ. eigenvalues --   -0.44290  -0.43689  -0.42003  -0.39839  -0.39505
 Alpha  occ. eigenvalues --   -0.38762  -0.37294  -0.36629  -0.35962
 Alpha virt. eigenvalues --    0.06561   0.08308   0.08708   0.08974   0.11664
 Alpha virt. eigenvalues --    0.12348   0.12888   0.13849   0.14439   0.14948
 Alpha virt. eigenvalues --    0.15680   0.17215   0.17762   0.18086   0.18857

 Mulliken charges:
               1
     1  C   -0.287632
     2  C   -0.306513
     3  C   -0.285835
     4  C   -0.239431
     5  C   -0.257126
     6  C   -0.364964
     7  C   -0.372694
     8  H    0.125429
     9  H    0.126479
    10  H    0.147897
    11  H    0.145221
    12  H    0.151068
    13  H    0.157181
    14  H    0.141418
    15  H    0.138603
    16  H    0.137178
    17  H    0.134013
    18  H    0.116952
    19  H    0.114667
    20  H    0.117969
    21  H    0.118930
    22  H    0.121240
    23  H    0.119951
 Sum of Mulliken charges =   0.00000

 Dipole moment (field-independent basis, Debye):
    X=              0.0254    Y=             -0.0058    Z=             -0.0552  Tot=              0.0610
 Quadrupole moment (field-independent basis, Debye-Ang):
   XX=            -48.9361   YY=            -48.9116   ZZ=            -48.7408
   XY=              0.3317   XZ=              0.1767   YZ=              0.1016

  Exact polarizability:  97.990  -0.463  80.069  -0.593  -0.293  76.193
 Approx polarizability:  98.186   0.018  96.835  -0.029  -0.384  97.046

                      1                      2                      3
                      A                      A                      A
 Frequencies --     40.5952                77.7621               124.8403
 Red. masses --      2.5975                 2.4733                 1.8385
 Frc consts  --      0.0025                 0.0088                 0.0169
 IR Inten    --      0.0082                 0.0174                 0.0379

                      4                      5                      6
                      A                      A                      A
 Frequencies --    173.3370               223.3933               250.9047
 Red. masses --      1.4670                 1.6103                 1.7449
 Frc consts  --      0.0260                 0.0473                 0.0647
 IR Inten    --      0.0398                 0.0928                 0.0048

                      7                      8                      9
                      A                      A                      A
 Frequencies --    292.4362               296.4247               357.9604
 Red. masses --      1.3205                 1.6714                 2.0738
 Frc consts  --      0.0665                 0.0865                 0.1566
 IR Inten    --      0.0373                 0.0105                 0.2857

                     10                     11                     12
                      A                      A                      A
 Frequencies --    436.8695               517.3235               722.9107
 Red. masses --      2.1325                 2.2524                 1.1483
 Frc consts  --      0.2398                 0.3552                 0.3536
 IR Inten    --      0.2296                 0.1760                 7.1541

                     13                     14                     15
                      A                      A                      A
 Frequencies --    751.5066               799.5586               848.6673
 Red. masses --      1.2565                 1.2520                 2.3209
 Frc consts  --      0.4181                 0.4716                 0.9849
 IR Inten    --      0.5409                 3.5339                 0.4740

                     16                     17                     18
                      A                      A                      A
 Frequencies --    858.3336               905.7730               956.9700
 Red. masses --      1.4037                 1.8958                 1.6494
 Frc consts  --      0.6093                 0.9164                 0.8899
 IR Inten    --      1.1592                 1.0020                 1.1363

                     19                     20                     21
                      A                      A                      A
 Frequencies --    961.6949              1013.2736              1045.0721
 Red. masses --      1.4624                 1.7061                 1.4161
 Frc consts  --      0.7969                 1.0321                 0.9112
 IR Inten    --      0.3376                 1.3020                 0.1191

                     22                     23                     24
                      A                      A                      A
 Frequencies --   1072.0151              1095.9962              1121.8244
 Red. masses --      1.3103                 2.2188                 2.0270
 Frc consts  --      0.8872                 1.5703                 1.5030
 IR Inten    --      0.2717                 0.3383                 0.0761

                     25                     26                     27
                      A                      A                      A
 Frequencies --   1154.7525              1178.2200              1229.7960
 Red. masses --      1.9629                 2.0883                 1.4460
 Frc consts  --      1.5421                 1.7080                 1.2885
 IR Inten    --      0.6479                 0.5069                 1.6232

                     28                     29                     30
                      A                      A                      A
 Frequencies --   1262.8443              1297.7418              1307.8024
 Red. masses --      1.3599                 1.2540                 1.2194
 Frc consts  --      1.2778                 1.2443                 1.2288
 IR Inten    --      1.2088                 0.3887                 2.2326

                     31                     32                     33
                      A                      A                      A
 Frequencies --   1334.5323              1342.1622              1378.6756
 Red. masses --      1.0920                 1.2445                 1.3605
 Frc consts  --      1.1459                 1.3209                 1.5237
 IR Inten    --      0.3106                 1.5294                 1.9878

                     34                     35                     36
                      A                      A                      A
 Frequencies --   1380.9336              1390.7410              1410.3746
 Red. masses --      1.4120                 1.5260                 1.4719
 Frc consts  --      1.5864                 1.7390                 1.7250
 IR Inten    --      1.2617                 0.4885                 0.7951

                     37                     38                     39
                      A                      A                      A
 Frequencies --   1416.2519              1417.8957              1481.1092
 Red. masses --      1.2983                 1.3614                 1.0709
 Frc consts  --      1.5343                 1.6126                 1.3841
 IR Inten    --      7.2717                 6.3471                 0.2352

                     40                     41                     42
                      A                      A                      A
 Frequencies --   1490.8475              1494.1106              1497.8138
 Red. masses --      1.0762                 1.0705                 1.0605
 Frc consts  --      1.4093                 1.4080                 1.4018
 IR Inten    --      2.7728                 0.7809                 2.3329

                     43                     44                     45
                      A                      A                      A
 Frequencies --   1501.7872              1504.9519              1508.7833
 Red. masses --      1.0702                 1.0628                 1.0593
 Frc consts  --      1.4221                 1.4182                 1.4208
 IR Inten    --      7.9191                 5.6710                 7.3787

                     46                     47                     48
                      A                      A                      A
 Frequencies --   1513.2381              1518.8613              3032.1407
 Red. masses --      1.0623                 1.0774                 1.0656
 Frc consts  --      1.4332                 1.4643                 5.7721
 IR Inten    --      9.7117                 1.6870                 7.4897

                     49                     50                     51
                      A                      A                      A
 Frequencies --   3043.6863              3047.7241              3050.7138
 Red. masses --      1.0611                 1.0637                 1.0614
 Frc consts  --      5.7915                 5.8211                 5.8200
 IR Inten    --     28.9289                10.9140                23.9898

                     52                     53                     54
                      A                      A                      A
 Frequencies --   3056.9345              3060.0548              3061.8203
 Red. masses --      1.0422                 1.0384                 1.0633
 Frc consts  --      5.7380                 5.7287                 5.8730
 IR Inten    --     23.9084                20.3202                20.6171

                     55                     56                     57
                      A                      A                      A
 Frequencies --   3077.9537              3080.4792              3087.2518
 Red. masses --      1.0932                 1.0966                 1.0990
 Frc consts  --      6.1020                 6.1308                 6.1715
 IR Inten    --      6.1428                30.6323                16.3677

                     58                     59                     60
                      A                      A                      A
 Frequencies --   3095.8427              3101.0395              3124.1724
 Red. masses --      1.1014                 1.1010                 1.1019
 Frc consts  --      6.2194                 6.2381                 6.3367
 IR Inten    --     30.1019                73.6116                43.5097

                     61                     62                     63
                      A                      A                      A
 Frequencies --   3127.2532              3132.7604              3138.8290
 Red. masses --      1.1003                 1.1013                 1.1014
 Frc consts  --      6.3398                 6.3683                 6.3936
 IR Inten    --     33.5024                32.7506                35.0125

 - Thermochemistry -
 -------------------
 Temperature   298.150 Kelvin.  Pressure   1.00000 Atm.
 Atom     1 has atomic number  6 and mass  12.00000

 Molecular mass:   100.12520 amu.
 Principal axes and moments of inertia in atomic units:
                           1         2         3
     Eigenvalues --   326.640611653.587411772.10175
           X            0.99998  -0.00668  -0.00011
           Y            0.00668   0.99995  -0.00699
           Z            0.00015   0.00698   0.99998
 This molecule is an asymmetric top.
 Rotational symmetry number  1.
 Rotational temperatures (Kelvin)      0.26517     0.05238     0.04888
 Rotational constants (GHZ):           5.52516     1.09141     1.01842
 Zero-point vibrational energy     575872.3 (Joules/Mol)
                                  137.63678 (Kcal/Mol)
 Warning -- explicit consideration of  11 degrees of freedom as
           vibrations may cause significant error
 Vibrational temperatures:     58.41   111.88   179.62   249.39   321.41
          (Kelvin)            361.00   420.75   426.49   515.03   628.56
                              744.31  1040.11  1081.25  1150.39  1221.04
                             1234.95  1303.21  1376.87  1383.66  1457.87
                             1503.63  1542.39  1576.89  1614.06  1661.43
                             1695.20  1769.40  1816.95  1867.16  1881.64
                             1920.09  1931.07  1983.61  1986.86  2000.97
                             2029.21  2037.67  2040.04  2130.99  2145.00
                             2149.69  2155.02  2160.74  2165.29  2170.80
                             2177.21  2185.30  4362.57  4379.19  4385.00
                             4389.30  4398.25  4402.74  4405.28  4428.49
                             4432.12  4441.87  4454.23  4461.70  4494.99
                             4499.42  4507.34  4516.07

 Zero-point correction=                           0.219338 (Hartree/Particle)
 Thermal correction to Energy=                    0.228681
 Thermal correction to Enthalpy=                  0.229625
 Thermal correction to Gibbs Free Energy=         0.184928
 Sum of electronic and zero-point Energies=           -276.119786
 Sum of electronic and thermal Energies=              -276.110443
 Sum of electronic and thermal Enthalpies=            -276.109499
 Sum of electronic and thermal Free Energies=         -276.154196

                     E (Thermal)             CV                S
                      KCal/Mol        Cal/Mol-Kelvin    Cal/Mol-Kelvin
 Total                  143.500             33.668             94.073
 Electronic               0.000              0.000              0.000
 Translational            0.889              2.981             39.722
 Rotational               0.889              2.981             28.350
 Vibrational            141.722             27.707             26.002
 Vibration     1          0.594              1.981              5.230
 Vibration     2          0.599              1.964              3.947
 Vibration     3          0.610              1.928              3.024
 Vibration     4          0.627              1.875              2.399
 Vibration     5          0.649              1.805              1.931
 Vibration     6          0.663              1.761              1.724
 Vibration     7          0.688              1.688              1.460
 Vibration     8          0.690              1.680              1.437
 Vibration     9          0.733              1.559              1.131
 Vibration    10          0.797              1.390              0.837
 Vibration    11          0.872              1.212              0.616

 Optimization completed.
    -- Stationary point found.
 Normal termination of Gaussian 16 at Sun Sep 29 11:17:17 2019.
