 Gaussian 16, Revision A.03,
 Gaussian 16:  EM64L-G16RevA.03 25-Dec-2016

 ----------------------------------------------------------------------
 #p m062x/cc-pVTZ opt=(calcfc,maxcycles=900,Tight) freq IOP(7/33=1,2/16
 =3) scf=(maxcycle=900)
 ----------------------------------------------------------------------

 ------------------------------
 Gaussian input prepared by ASE
 ------------------------------
 Symbolic Z-matrix:
 Charge =  0 Multiplicity = 1

 SCF Done:  E(RM062X) =  -276.312412598     A.U. after   11 cycles
 SCF Done:  E(RM062X) =  -276.325742137     A.U. after   10 cycles
 SCF Done:  E(RM062X) =  -276.330087408     A.U. after   11 cycles
 SCF Done:  E(RM062X) =  -276.331890866     A.U. after    9 cycles
 SCF Done:  E(RM062X) =  -276.331422721     A.U. after   11 cycles
 SCF Done:  E(RM062X) =  -276.281379293     A.U. after   11 cycles
 SCF Done:  E(RM062X) =  -276.284415388     A.U. after   10 cycles
 SCF Done:  E(RM062X) =  -276.332262195     A.U. after    6 cycles
 SCF Done:  E(RM062X) =  -276.333367990     A.U. after    9 cycles
 SCF Done:  E(RM062X) =  -276.334825423     A.U. after   12 cycles
 SCF Done:  E(RM062X) =  -276.336293953     A.U. after    8 cycles
 SCF Done:  E(RM062X) =  -276.336408050     A.U. after    9 cycles
 SCF Done:  E(RM062X) =  -276.336412645     A.U. after    7 cycles
 SCF Done:  E(RM062X) =  -276.336415426     A.U. after    7 cycles
 SCF Done:  E(RM062X) =  -276.336416401     A.U. after    6 cycles
 SCF Done:  E(RM062X) =  -276.336416458     A.U. after    5 cycles
 SCF Done:  E(RM062X) =  -276.336416463     A.U. after    5 cycles
 SCF Done:  E(RM062X) =  -276.336416469     A.U. after    4 cycles
 SCF Done:  E(RM062X) =  -276.336416469     A.U. after    3 cycles
 Optimization completed.
    -- Stationary point found.
 Normal termination of Gaussian 16 at Sun Sep 29 05:27:55 2019.

 ----------------------------------------------------------------------
 #P Geom=AllCheck Guess=TCheck SCRF=Check Test GenChk RM062X/CC-pVTZ Fr
 eq
 ----------------------------------------------------------------------

 Structure from the checkpoint file:  "/scratch/harms.n/gauss_scrdir/Gau-35163.chk"
 ------------------------------
 Gaussian input prepared by ASE
 ------------------------------
 Charge =  0 Multiplicity = 1

                         Standard orientation:
 ---------------------------------------------------------------------
 Center     Atomic      Atomic             Coordinates (Angstroms)
 Number     Number       Type             X           Y           Z
 ---------------------------------------------------------------------
      1          6           0        0.885995    0.010604   -0.688064
      2          6           0       -0.268125   -0.993927   -0.668407
      3          6           0       -1.180054   -0.885530    0.564308
      4          6           0        2.005273   -0.342506    0.286462
      5          6           0       -2.459740   -0.086965    0.315542
      6          6           0        3.122901    0.692549    0.288652
      7          6           0       -2.217568    1.354481   -0.117213
      8          1           0        2.409539   -1.322626    0.019762
      9          1           0        1.599614   -0.444058    1.295808
     10          1           0        0.512723    1.011757   -0.455794
     11          1           0        1.307764    0.065004   -1.695405
     12          1           0        0.158222   -1.998217   -0.727166
     13          1           0       -0.877175   -0.873021   -1.568433
     14          1           0       -0.628921   -0.425297    1.389748
     15          1           0       -1.460208   -1.882679    0.907134
     16          1           0       -3.049529   -0.598309   -0.450089
     17          1           0       -3.064412   -0.093234    1.224774
     18          1           0        3.557167    0.796214   -0.706920
     19          1           0        2.743885    1.671416    0.586087
     20          1           0        3.923034    0.420377    0.976286
     21          1           0       -1.691335    1.400768   -1.071253
     22          1           0       -1.614643    1.886820    0.620985
     23          1           0       -3.157817    1.892852   -0.233200
 ---------------------------------------------------------------------

 SCF Done:  E(RM062X) =  -276.336416469     A.U. after    1 cycles

 The electronic state is 1-A.
 Alpha  occ. eigenvalues --  -10.52670 -10.52558 -10.52483 -10.52433 -10.52385
 Alpha  occ. eigenvalues --  -10.51963 -10.51918  -0.91214  -0.87599  -0.82201
 Alpha  occ. eigenvalues --   -0.76686  -0.70591  -0.66563  -0.63774  -0.54320
 Alpha  occ. eigenvalues --   -0.52974  -0.51527  -0.48918  -0.48363  -0.45899
 Alpha  occ. eigenvalues --   -0.44560  -0.43149  -0.42532  -0.40021  -0.39185
 Alpha  occ. eigenvalues --   -0.39034  -0.37002  -0.36480  -0.36204
 Alpha virt. eigenvalues --    0.06748   0.08127   0.09039   0.09163   0.11359
 Alpha virt. eigenvalues --    0.12354   0.12565   0.13665   0.14241   0.15186
 Alpha virt. eigenvalues --    0.16210   0.16783   0.17376   0.17903   0.19242

 Mulliken charges:
               1
     1  C   -0.282059
     2  C   -0.308222
     3  C   -0.269181
     4  C   -0.232207
     5  C   -0.226378
     6  C   -0.352062
     7  C   -0.391736
     8  H    0.124276
     9  H    0.130385
    10  H    0.151398
    11  H    0.137584
    12  H    0.142069
    13  H    0.147600
    14  H    0.140142
    15  H    0.134346
    16  H    0.125724
    17  H    0.125252
    18  H    0.109447
    19  H    0.109529
    20  H    0.114118
    21  H    0.124046
    22  H    0.122393
    23  H    0.123535
 Sum of Mulliken charges =  -0.00000

 Dipole moment (field-independent basis, Debye):
    X=             -0.0785    Y=             -0.1056    Z=              0.0268  Tot=              0.1343
 Quadrupole moment (field-independent basis, Debye-Ang):
   XX=            -49.0100   YY=            -49.1544   ZZ=            -48.5256
   XY=             -0.3489   XZ=             -0.1101   YZ=              0.3077

  Exact polarizability:  96.987   0.810  81.473   0.020  -0.680  76.233
 Approx polarizability:  98.271   0.084  97.168   0.117   0.082  96.733

                      1                      2                      3
                      A                      A                      A
 Frequencies --     62.6876                70.9316               122.9890
 Red. masses --      2.7320                 1.7283                 2.1401
 Frc consts  --      0.0063                 0.0051                 0.0191
 IR Inten    --      0.0102                 0.0057                 0.0199

                      4                      5                      6
                      A                      A                      A
 Frequencies --    150.1741               243.3585               256.2436
 Red. masses --      2.0733                 1.1350                 2.0424
 Frc consts  --      0.0275                 0.0396                 0.0790
 IR Inten    --      0.0110                 0.0033                 0.0039

                      7                      8                      9
                      A                      A                      A
 Frequencies --    273.1851               304.7082               322.5281
 Red. masses --      1.4723                 1.6919                 1.9467
 Frc consts  --      0.0647                 0.0926                 0.1193
 IR Inten    --      0.0576                 0.0189                 0.0652

                     10                     11                     12
                      A                      A                      A
 Frequencies --    456.4567               469.6995               733.7022
 Red. masses --      1.7402                 2.1488                 1.1421
 Frc consts  --      0.2136                 0.2793                 0.3622
 IR Inten    --      0.2876                 0.1999                 2.4693

                     13                     14                     15
                      A                      A                      A
 Frequencies --    772.1852               802.5745               835.7122
 Red. masses --      1.1985                 2.0432                 1.9368
 Frc consts  --      0.4211                 0.7754                 0.7970
 IR Inten    --      2.9351                 0.6579                 0.5124

                     16                     17                     18
                      A                      A                      A
 Frequencies --    862.0150               903.3407               947.8787
 Red. masses --      1.3440                 1.4417                 1.4212
 Frc consts  --      0.5884                 0.6931                 0.7523
 IR Inten    --      0.4883                 0.7339                 5.8423

                     19                     20                     21
                      A                      A                      A
 Frequencies --    956.2078              1037.5746              1066.1666
 Red. masses --      1.8483                 1.9303                 1.5912
 Frc consts  --      0.9957                 1.2244                 1.0657
 IR Inten    --      0.3872                 2.9650                 1.4763

                     22                     23                     24
                      A                      A                      A
 Frequencies --   1073.8592              1080.4590              1126.9479
 Red. masses --      1.8005                 1.6271                 1.9384
 Frc consts  --      1.2233                 1.1191                 1.4504
 IR Inten    --      0.4687                 0.1603                 0.0309

                     25                     26                     27
                      A                      A                      A
 Frequencies --   1157.4876              1168.9621              1245.4203
 Red. masses --      2.0212                 2.0007                 1.3406
 Frc consts  --      1.5955                 1.6108                 1.2251
 IR Inten    --      0.4112                 0.7590                 0.0548

                     28                     29                     30
                      A                      A                      A
 Frequencies --   1255.8727              1291.6390              1311.3824
 Red. masses --      1.3511                 1.2573                 1.2182
 Frc consts  --      1.2555                 1.2359                 1.2343
 IR Inten    --      0.3124                 1.3193                 0.0365

                     31                     32                     33
                      A                      A                      A
 Frequencies --   1329.4688              1334.6939              1368.5457
 Red. masses --      1.2570                 1.1116                 1.2936
 Frc consts  --      1.3090                 1.1668                 1.4274
 IR Inten    --      1.7992                 0.6251                 3.1497

                     34                     35                     36
                      A                      A                      A
 Frequencies --   1382.6386              1391.2818              1401.7188
 Red. masses --      1.4129                 1.4820                 1.5845
 Frc consts  --      1.5914                 1.6902                 1.8343
 IR Inten    --      0.5248                 1.0019                 0.1883

                     37                     38                     39
                      A                      A                      A
 Frequencies --   1413.1684              1417.5224              1484.0025
 Red. masses --      1.2650                 1.3124                 1.0718
 Frc consts  --      1.4884                 1.5537                 1.3907
 IR Inten    --      2.7726                 5.0702                 1.0567

                     40                     41                     42
                      A                      A                      A
 Frequencies --   1490.4332              1493.8911              1497.7643
 Red. masses --      1.0692                 1.0771                 1.0651
 Frc consts  --      1.3993                 1.4162                 1.4077
 IR Inten    --      0.0974                 1.1053                 1.5784

                     43                     44                     45
                      A                      A                      A
 Frequencies --   1499.7323              1503.5777              1509.4356
 Red. masses --      1.0743                 1.0407                 1.0687
 Frc consts  --      1.4237                 1.3862                 1.4346
 IR Inten    --      3.9544                 5.6517                12.9785

                     46                     47                     48
                      A                      A                      A
 Frequencies --   1512.3495              1513.0159              3041.4854
 Red. masses --      1.0770                 1.0654                 1.0622
 Frc consts  --      1.4514                 1.4369                 5.7893
 IR Inten    --      4.4664                13.5086                 5.2210

                     49                     50                     51
                      A                      A                      A
 Frequencies --   3047.4156              3048.1719              3050.4144
 Red. masses --      1.0648                 1.0621                 1.0594
 Frc consts  --      5.8264                 5.8140                 5.8079
 IR Inten    --      6.8639                24.8242                10.7482

                     52                     53                     54
                      A                      A                      A
 Frequencies --   3052.8119              3056.2271              3057.8470
 Red. masses --      1.0608                 1.0386                 1.0391
 Frc consts  --      5.8246                 5.7156                 5.7243
 IR Inten    --     23.7622                18.9120                50.8102

                     55                     56                     57
                      A                      A                      A
 Frequencies --   3074.3528              3082.4919              3088.4860
 Red. masses --      1.0980                 1.1000                 1.0991
 Frc consts  --      6.1145                 6.1581                 6.1769
 IR Inten    --      5.5564                22.4630                31.8517

                     58                     59                     60
                      A                      A                      A
 Frequencies --   3093.0234              3100.1135              3124.3023
 Red. masses --      1.1013                 1.1007                 1.1018
 Frc consts  --      6.2078                 6.2328                 6.3365
 IR Inten    --     30.6056                52.8953                26.2072

                     61                     62                     63
                      A                      A                      A
 Frequencies --   3124.9445              3131.8783              3133.0153
 Red. masses --      1.1027                 1.1016                 1.1015
 Frc consts  --      6.3443                 6.3663                 6.3701
 IR Inten    --     65.0414                35.2060                26.4034

 - Thermochemistry -
 -------------------
 Temperature   298.150 Kelvin.  Pressure   1.00000 Atm.
 Atom     1 has atomic number  6 and mass  12.00000

 Molecular mass:   100.12520 amu.
 Principal axes and moments of inertia in atomic units:
                           1         2         3
     Eigenvalues --   389.800371577.762031725.33834
           X            1.00000  -0.00007   0.00218
           Y            0.00009   0.99995  -0.01047
           Z           -0.00218   0.01047   0.99994
 This molecule is an asymmetric top.
 Rotational symmetry number  1.
 Rotational temperatures (Kelvin)      0.22220     0.05490     0.05020
 Rotational constants (GHZ):           4.62991     1.14386     1.04602
 Zero-point vibrational energy     575479.0 (Joules/Mol)
                                  137.54278 (Kcal/Mol)
 Warning -- explicit consideration of  11 degrees of freedom as
           vibrations may cause significant error
 Vibrational temperatures:     90.19   102.05   176.95   216.07   350.14
          (Kelvin)            368.68   393.05   438.41   464.05   656.74
                              675.79  1055.63  1111.00  1154.73  1202.40
                             1240.25  1299.71  1363.79  1375.77  1492.84
                             1533.98  1545.04  1554.54  1621.43  1665.37
                             1681.88  1791.88  1806.92  1858.38  1886.79
                             1912.81  1920.33  1969.03  1989.31  2001.74
                             2016.76  2033.23  2039.50  2135.15  2144.40
                             2149.38  2154.95  2157.78  2163.31  2171.74
                             2175.93  2176.89  4376.02  4384.55  4385.64
                             4388.87  4392.32  4397.23  4399.56  4423.31
                             4435.02  4443.64  4450.17  4460.37  4495.17
                             4496.10  4506.07  4507.71

 Zero-point correction=                           0.219188 (Hartree/Particle)
 Thermal correction to Energy=                    0.228570
 Thermal correction to Enthalpy=                  0.229514
 Thermal correction to Gibbs Free Energy=         0.184909
 Sum of electronic and zero-point Energies=           -276.117228
 Sum of electronic and thermal Energies=              -276.107847
 Sum of electronic and thermal Enthalpies=            -276.106903
 Sum of electronic and thermal Free Energies=         -276.151507

                     E (Thermal)             CV                S
                      KCal/Mol        Cal/Mol-Kelvin    Cal/Mol-Kelvin
 Total                  143.430             33.757             93.878
 Electronic               0.000              0.000              0.000
 Translational            0.889              2.981             39.722
 Rotational               0.889              2.981             28.453
 Vibrational            141.652             27.795             25.703
 Vibration     1          0.597              1.972              4.371
 Vibration     2          0.598              1.968              4.127
 Vibration     3          0.610              1.930              3.053
 Vibration     4          0.618              1.902              2.670
 Vibration     5          0.659              1.774              1.778
 Vibration     6          0.666              1.752              1.687
 Vibration     7          0.676              1.723              1.576
 Vibration     8          0.696              1.665              1.391
 Vibration     9          0.708              1.630              1.297
 Vibration    10          0.815              1.347              0.776
 Vibration    11          0.827              1.317              0.738

                           ! Non-Optimized Parameters !
 Normal termination of Gaussian 16 at Sun Sep 29 08:10:33 2019.
