 Gaussian 16, Revision A.03,
 Gaussian 16:  EM64L-G16RevA.03 25-Dec-2016

 ----------------------------------------------------------------------
 #p m062x/cc-pVTZ opt=(calcfc,maxcycles=900,Tight) freq IOP(7/33=1,2/16
 =3) scf=(maxcycle=900)
 ----------------------------------------------------------------------

 ------------------------------
 Gaussian input prepared by ASE
 ------------------------------
 Symbolic Z-matrix:
 Charge =  0 Multiplicity = 1

 SCF Done:  E(RM062X) =  -276.303086251     A.U. after   11 cycles
 SCF Done:  E(RM062X) =  -276.323089282     A.U. after   11 cycles
 SCF Done:  E(RM062X) =  -276.305329937     A.U. after   11 cycles
 SCF Done:  E(RM062X) =  -276.325651871     A.U. after   11 cycles
 SCF Done:  E(RM062X) =  -276.330199258     A.U. after   10 cycles
 SCF Done:  E(RM062X) =  -276.320312744     A.U. after   10 cycles
 SCF Done:  E(RM062X) =  -276.331273759     A.U. after   10 cycles
 SCF Done:  E(RM062X) =  -276.333301434     A.U. after    9 cycles
 SCF Done:  E(RM062X) =  -276.334024002     A.U. after    9 cycles
 SCF Done:  E(RM062X) =  -276.334014818     A.U. after    9 cycles
 SCF Done:  E(RM062X) =  -276.337116374     A.U. after    8 cycles
 SCF Done:  E(RM062X) =  -276.337148255     A.U. after    8 cycles
 SCF Done:  E(RM062X) =  -276.337185081     A.U. after    8 cycles
 SCF Done:  E(RM062X) =  -276.337199624     A.U. after    8 cycles
 SCF Done:  E(RM062X) =  -276.337204428     A.U. after    7 cycles
 SCF Done:  E(RM062X) =  -276.337205604     A.U. after    7 cycles
 SCF Done:  E(RM062X) =  -276.337205650     A.U. after    5 cycles
 SCF Done:  E(RM062X) =  -276.337205656     A.U. after    4 cycles
 SCF Done:  E(RM062X) =  -276.337205657     A.U. after    3 cycles
 Optimization completed.
    -- Stationary point found.
 Normal termination of Gaussian 16 at Sun Sep 29 09:06:12 2019.

 ----------------------------------------------------------------------
 #P Geom=AllCheck Guess=TCheck SCRF=Check Test GenChk RM062X/CC-pVTZ Fr
 eq
 ----------------------------------------------------------------------

 Structure from the checkpoint file:  "/scratch/harms.n/gauss_scrdir/Gau-9735.chk"
 ------------------------------
 Gaussian input prepared by ASE
 ------------------------------
 Charge =  0 Multiplicity = 1

                         Standard orientation:
 ---------------------------------------------------------------------
 Center     Atomic      Atomic             Coordinates (Angstroms)
 Number     Number       Type             X           Y           Z
 ---------------------------------------------------------------------
      1          6           0        1.462059   -0.784551   -0.577977
      2          6           0        0.357472   -1.555459    0.149358
      3          6           0       -0.831242   -0.722101    0.621972
      4          6           0        2.104078    0.343469    0.241801
      5          6           0       -1.616639   -0.062864   -0.506237
      6          6           0        1.461600    1.715065    0.046306
      7          6           0       -2.782209    0.768911    0.013489
      8          1           0        3.158292    0.423932   -0.028506
      9          1           0        2.084352    0.073641    1.301792
     10          1           0        1.081198   -0.375962   -1.517902
     11          1           0        2.232282   -1.505568   -0.857534
     12          1           0        0.802941   -2.053772    1.014570
     13          1           0       -0.008560   -2.349579   -0.507599
     14          1           0       -0.491582    0.041882    1.327453
     15          1           0       -1.510192   -1.366249    1.187485
     16          1           0       -0.956064    0.571817   -1.100540
     17          1           0       -1.984791   -0.838910   -1.182945
     18          1           0        0.419534    1.732815    0.363128
     19          1           0        1.992529    2.480298    0.612706
     20          1           0        1.489636    2.001610   -1.006444
     21          1           0       -2.423820    1.572573    0.659555
     22          1           0       -3.466499    0.155199    0.601313
     23          1           0       -3.349971    1.221452   -0.798808
 ---------------------------------------------------------------------

 SCF Done:  E(RM062X) =  -276.337205657     A.U. after    1 cycles

 The electronic state is 1-A.
 Alpha  occ. eigenvalues --  -10.52712 -10.52551 -10.52500 -10.52425 -10.52399
 Alpha  occ. eigenvalues --  -10.51977 -10.51976  -0.91284  -0.87313  -0.82564
 Alpha  occ. eigenvalues --   -0.76701  -0.70342  -0.67390  -0.63008  -0.55312
 Alpha  occ. eigenvalues --   -0.52262  -0.50770  -0.49840  -0.47897  -0.46329
 Alpha  occ. eigenvalues --   -0.44829  -0.43068  -0.42203  -0.40128  -0.39925
 Alpha  occ. eigenvalues --   -0.38592  -0.36684  -0.36407  -0.36358
 Alpha virt. eigenvalues --    0.06731   0.08104   0.08804   0.08988   0.11834
 Alpha virt. eigenvalues --    0.12180   0.13011   0.13428   0.14488   0.15692
 Alpha virt. eigenvalues --    0.15948   0.16915   0.17454   0.18049   0.19467

 Mulliken charges:
               1
     1  C   -0.280235
     2  C   -0.283021
     3  C   -0.297186
     4  C   -0.247492
     5  C   -0.278912
     6  C   -0.390802
     7  C   -0.349778
     8  H    0.129594
     9  H    0.135057
    10  H    0.143228
    11  H    0.138672
    12  H    0.142121
    13  H    0.138994
    14  H    0.151993
    15  H    0.147357
    16  H    0.147748
    17  H    0.138379
    18  H    0.126991
    19  H    0.122867
    20  H    0.123867
    21  H    0.113232
    22  H    0.111991
    23  H    0.115333
 Sum of Mulliken charges =  -0.00000

 Dipole moment (field-independent basis, Debye):
    X=              0.0996    Y=             -0.1026    Z=             -0.0356  Tot=              0.1473
 Quadrupole moment (field-independent basis, Debye-Ang):
   XX=            -48.7374   YY=            -49.0287   ZZ=            -48.8019
   XY=              0.4538   XZ=              0.2087   YZ=             -0.0648

  Exact polarizability:  92.775  -1.223  85.149  -0.073   0.191  75.663
 Approx polarizability:  97.953   0.090  97.415   0.157   0.163  97.346

                      1                      2                      3
                      A                      A                      A
 Frequencies --     63.0444                81.1776               138.5161
 Red. masses --      2.4863                 1.7315                 1.7717
 Frc consts  --      0.0058                 0.0067                 0.0200
 IR Inten    --      0.0041                 0.0327                 0.0168

                      4                      5                      6
                      A                      A                      A
 Frequencies --    196.3625               223.2338               239.8876
 Red. masses --      2.1774                 2.0057                 1.1628
 Frc consts  --      0.0495                 0.0589                 0.0394
 IR Inten    --      0.0494                 0.0289                 0.1515

                      7                      8                      9
                      A                      A                      A
 Frequencies --    271.7125               301.8143               365.5185
 Red. masses --      1.4199                 2.0453                 1.8778
 Frc consts  --      0.0618                 0.1098                 0.1478
 IR Inten    --      0.0317                 0.0677                 0.2591

                     10                     11                     12
                      A                      A                      A
 Frequencies --    420.4551               504.1388               735.0732
 Red. masses --      2.1203                 2.0500                 1.1362
 Frc consts  --      0.2208                 0.3070                 0.3617
 IR Inten    --      0.0644                 0.3964                 6.2686

                     13                     14                     15
                      A                      A                      A
 Frequencies --    751.1368               792.9403               833.6424
 Red. masses --      1.3667                 1.3413                 1.8996
 Frc consts  --      0.4543                 0.4969                 0.7778
 IR Inten    --      1.7455                 1.4182                 0.6207

                     16                     17                     18
                      A                      A                      A
 Frequencies --    867.5210               903.4348               954.6080
 Red. masses --      1.7776                 1.4375                 1.5046
 Frc consts  --      0.7882                 0.6913                 0.8079
 IR Inten    --      0.8682                 1.3400                 2.0738

                     19                     20                     21
                      A                      A                      A
 Frequencies --    964.3903              1043.7388              1060.6981
 Red. masses --      1.5665                 2.0942                 1.3780
 Frc consts  --      0.8584                 1.3442                 0.9135
 IR Inten    --      1.7630                 1.1152                 0.2969

                     22                     23                     24
                      A                      A                      A
 Frequencies --   1065.5626              1080.8615              1129.8182
 Red. masses --      1.6749                 1.8079                 1.8639
 Frc consts  --      1.1205                 1.2444                 1.4018
 IR Inten    --      0.3944                 0.0902                 0.1958

                     25                     26                     27
                      A                      A                      A
 Frequencies --   1152.3646              1177.3946              1238.3157
 Red. masses --      2.0430                 2.1013                 1.3605
 Frc consts  --      1.5985                 1.7163                 1.2292
 IR Inten    --      1.7600                 0.2375                 0.1867

                     28                     29                     30
                      A                      A                      A
 Frequencies --   1253.2851              1305.5329              1306.7383
 Red. masses --      1.3859                 1.2061                 1.2386
 Frc consts  --      1.2825                 1.2112                 1.2461
 IR Inten    --      0.5206                 0.0400                 1.4210

                     31                     32                     33
                      A                      A                      A
 Frequencies --   1328.2424              1340.3892              1370.3958
 Red. masses --      1.1591                 1.1540                 1.3124
 Frc consts  --      1.2048                 1.2216                 1.4522
 IR Inten    --      0.9262                 1.4258                 1.5558

                     34                     35                     36
                      A                      A                      A
 Frequencies --   1388.7418              1396.9350              1407.5638
 Red. masses --      1.5365                 1.4683                 1.5824
 Frc consts  --      1.7459                 1.6881                 1.8471
 IR Inten    --      0.0729                 1.8648                 0.7256

                     37                     38                     39
                      A                      A                      A
 Frequencies --   1414.0245              1416.1349              1487.4214
 Red. masses --      1.2554                 1.2872                 1.0725
 Frc consts  --      1.4789                 1.5209                 1.3981
 IR Inten    --      3.6289                 3.4991                 1.4385

                     40                     41                     42
                      A                      A                      A
 Frequencies --   1489.5505              1492.0126              1498.6603
 Red. masses --      1.0626                 1.0621                 1.0728
 Frc consts  --      1.3891                 1.3930                 1.4196
 IR Inten    --      3.3486                 2.5575                 2.8562

                     43                     44                     45
                      A                      A                      A
 Frequencies --   1502.6643              1504.1264              1507.9469
 Red. masses --      1.0527                 1.0721                 1.0741
 Frc consts  --      1.4005                 1.4290                 1.4390
 IR Inten    --      5.4062                 3.1709                 8.1871

                     46                     47                     48
                      A                      A                      A
 Frequencies --   1510.8866              1519.5021              3040.5286
 Red. masses --      1.0542                 1.0798                 1.0609
 Frc consts  --      1.4178                 1.4690                 5.7786
 IR Inten    --     10.9307                 5.7432                16.7997

                     49                     50                     51
                      A                      A                      A
 Frequencies --   3044.0309              3047.7690              3052.2036
 Red. masses --      1.0621                 1.0653                 1.0515
 Frc consts  --      5.7986                 5.8303                 5.7713
 IR Inten    --     12.7300                14.9625                 9.1657

                     52                     53                     54
                      A                      A                      A
 Frequencies --   3054.0367              3056.4305              3061.8555
 Red. masses --      1.0633                 1.0502                 1.0391
 Frc consts  --      5.8431                 5.7805                 5.7394
 IR Inten    --     14.1746                50.4977                16.4386

                     55                     56                     57
                      A                      A                      A
 Frequencies --   3071.5317              3080.0102              3089.2447
 Red. masses --      1.0971                 1.0973                 1.0985
 Frc consts  --      6.0983                 6.1334                 6.1768
 IR Inten    --      8.9190                30.7884                32.4366

                     58                     59                     60
                      A                      A                      A
 Frequencies --   3093.7252              3096.5414              3121.4764
 Red. masses --      1.1012                 1.1001                 1.1025
 Frc consts  --      6.2097                 6.2147                 6.3290
 IR Inten    --     51.3791                37.8085                56.3142

                     61                     62                     63
                      A                      A                      A
 Frequencies --   3124.8468              3132.7993              3143.7623
 Red. masses --      1.1014                 1.1014                 1.0998
 Frc consts  --      6.3367                 6.3688                 6.4043
 IR Inten    --     29.7360                30.3840                30.1216

 - Thermochemistry -
 -------------------
 Temperature   298.150 Kelvin.  Pressure   1.00000 Atm.
 Atom     1 has atomic number  6 and mass  12.00000

 Molecular mass:   100.12520 amu.
 Principal axes and moments of inertia in atomic units:
                           1         2         3
     Eigenvalues --   523.987091180.418501507.29783
           X            1.00000  -0.00297  -0.00106
           Y            0.00297   0.99999   0.00154
           Z            0.00105  -0.00154   1.00000
 This molecule is an asymmetric top.
 Rotational symmetry number  1.
 Warning -- assumption of classical behavior for rotation
           may cause significant error
 Rotational temperatures (Kelvin)      0.16530     0.07338     0.05746
 Rotational constants (GHZ):           3.44425     1.52890     1.19734
 Zero-point vibrational energy     576055.2 (Joules/Mol)
                                  137.68050 (Kcal/Mol)
 Warning -- explicit consideration of  11 degrees of freedom as
           vibrations may cause significant error
 Vibrational temperatures:     90.71   116.80   199.29   282.52   321.18
          (Kelvin)            345.14   390.93   434.24   525.90   604.94
                              725.34  1057.61  1080.72  1140.86  1199.43
                             1248.17  1299.84  1373.47  1387.54  1501.71
                             1526.11  1533.11  1555.12  1625.56  1658.00
                             1694.01  1781.66  1803.20  1878.37  1880.10
                             1911.04  1928.52  1971.69  1998.09  2009.88
                             2025.17  2034.47  2037.50  2140.07  2143.13
                             2146.67  2156.24  2162.00  2164.10  2169.60
                             2173.83  2186.22  4374.64  4379.68  4385.06
                             4391.44  4394.08  4397.52  4405.33  4419.25
                             4431.45  4444.73  4451.18  4455.23  4491.11
                             4495.96  4507.40  4523.17

 Zero-point correction=                           0.219408 (Hartree/Particle)
 Thermal correction to Energy=                    0.228683
 Thermal correction to Enthalpy=                  0.229628
 Thermal correction to Gibbs Free Energy=         0.185498
 Sum of electronic and zero-point Energies=           -276.117798
 Sum of electronic and thermal Energies=              -276.108522
 Sum of electronic and thermal Enthalpies=            -276.107578
 Sum of electronic and thermal Free Energies=         -276.151708

                     E (Thermal)             CV                S
                      KCal/Mol        Cal/Mol-Kelvin    Cal/Mol-Kelvin
 Total                  143.501             33.680             92.878
 Electronic               0.000              0.000              0.000
 Translational            0.889              2.981             39.722
 Rotational               0.889              2.981             28.324
 Vibrational            141.724             27.719             24.833
 Vibration     1          0.597              1.972              4.360
 Vibration     2          0.600              1.962              3.862
 Vibration     3          0.614              1.915              2.824
 Vibration     4          0.636              1.845              2.167
 Vibration     5          0.649              1.806              1.933
 Vibration     6          0.657              1.779              1.804
 Vibration     7          0.675              1.725              1.585
 Vibration     8          0.694              1.670              1.407
 Vibration     9          0.739              1.543              1.099
 Vibration    10          0.783              1.426              0.890
 Vibration    11          0.859              1.241              0.648

 Optimization completed.
    -- Stationary point found.
 Normal termination of Gaussian 16 at Sun Sep 29 11:56:15 2019.
