 Gaussian 16, Revision A.03,
 Gaussian 16:  EM64L-G16RevA.03 25-Dec-2016

 ----------------------------------------------------------------------
 #p m062x/cc-pVTZ opt=(calcfc,maxcycles=900,Tight) freq IOP(7/33=1,2/16
 =3) scf=(maxcycle=900)
 ----------------------------------------------------------------------

 ------------------------------
 Gaussian input prepared by ASE
 ------------------------------
 Symbolic Z-matrix:
 Charge =  0 Multiplicity = 1

 SCF Done:  E(RM062X) =  -276.301407621     A.U. after   11 cycles
 SCF Done:  E(RM062X) =  -276.318349583     A.U. after   10 cycles
 SCF Done:  E(RM062X) =  -276.323202887     A.U. after   11 cycles
 SCF Done:  E(RM062X) =  -276.322579426     A.U. after   12 cycles
 SCF Done:  E(RM062X) =  -276.329755756     A.U. after   10 cycles
 SCF Done:  E(RM062X) =  -276.329988120     A.U. after   10 cycles
 SCF Done:  E(RM062X) =  -276.332761080     A.U. after   10 cycles
 SCF Done:  E(RM062X) =  -276.334986036     A.U. after   10 cycles
 SCF Done:  E(RM062X) =  -276.336037805     A.U. after   10 cycles
 SCF Done:  E(RM062X) =  -276.336385616     A.U. after    9 cycles
 SCF Done:  E(RM062X) =  -276.336543863     A.U. after    6 cycles
 SCF Done:  E(RM062X) =  -276.336552950     A.U. after    8 cycles
 SCF Done:  E(RM062X) =  -276.336555539     A.U. after    6 cycles
 SCF Done:  E(RM062X) =  -276.336556384     A.U. after    6 cycles
 SCF Done:  E(RM062X) =  -276.336556508     A.U. after    5 cycles
 SCF Done:  E(RM062X) =  -276.336556527     A.U. after    4 cycles
 SCF Done:  E(RM062X) =  -276.336556553     A.U. after    5 cycles
 SCF Done:  E(RM062X) =  -276.336556564     A.U. after    4 cycles
 SCF Done:  E(RM062X) =  -276.336556565     A.U. after    3 cycles
 Optimization completed.
    -- Stationary point found.
 Normal termination of Gaussian 16 at Sun Sep 29 07:48:16 2019.

 ----------------------------------------------------------------------
 #P Geom=AllCheck Guess=TCheck SCRF=Check Test GenChk RM062X/CC-pVTZ Fr
 eq
 ----------------------------------------------------------------------

 Structure from the checkpoint file:  "/scratch/harms.n/gauss_scrdir/Gau-42695.chk"
 ------------------------------
 Gaussian input prepared by ASE
 ------------------------------
 Charge =  0 Multiplicity = 1

                         Standard orientation:
 ---------------------------------------------------------------------
 Center     Atomic      Atomic             Coordinates (Angstroms)
 Number     Number       Type             X           Y           Z
 ---------------------------------------------------------------------
      1          6           0        0.815166   -0.271301    0.661183
      2          6           0        0.060511    0.737911   -0.203804
      3          6           0       -1.329154    1.098003    0.341331
      4          6           0        2.082859   -0.815908    0.008036
      5          6           0       -2.472227    0.306034   -0.294210
      6          6           0        3.107394    0.263701   -0.324627
      7          6           0       -2.355117   -1.205161   -0.132659
      8          1           0        1.810246   -1.352847   -0.905070
      9          1           0        2.537987   -1.551911    0.673628
     10          1           0        0.154988   -1.103648    0.911530
     11          1           0        1.074129    0.207934    1.610785
     12          1           0       -0.039176    0.340686   -1.220541
     13          1           0        0.663451    1.642607   -0.293087
     14          1           0       -1.524284    2.159975    0.184416
     15          1           0       -1.340238    0.942462    1.424837
     16          1           0       -3.417864    0.641880    0.136301
     17          1           0       -2.515669    0.549752   -1.359188
     18          1           0        3.349190    0.852633    0.562366
     19          1           0        4.033015   -0.171972   -0.699364
     20          1           0        2.734067    0.948535   -1.085716
     21          1           0       -2.293646   -1.482374    0.921318
     22          1           0       -1.464603   -1.590920   -0.630769
     23          1           0       -3.218197   -1.712472   -0.562943
 ---------------------------------------------------------------------

 SCF Done:  E(RM062X) =  -276.336556565     A.U. after    1 cycles

 The electronic state is 1-A.
 Alpha  occ. eigenvalues --  -10.52683 -10.52610 -10.52460 -10.52409 -10.52344
 Alpha  occ. eigenvalues --  -10.51984 -10.51888  -0.91195  -0.87650  -0.81977
 Alpha  occ. eigenvalues --   -0.76744  -0.71339  -0.65386  -0.64191  -0.54606
 Alpha  occ. eigenvalues --   -0.52740  -0.50953  -0.49667  -0.48499  -0.45817
 Alpha  occ. eigenvalues --   -0.44232  -0.43487  -0.41841  -0.40721  -0.39475
 Alpha  occ. eigenvalues --   -0.38471  -0.37475  -0.36196  -0.35964
 Alpha virt. eigenvalues --    0.06854   0.08118   0.08799   0.09072   0.11451
 Alpha virt. eigenvalues --    0.12320   0.12693   0.13562   0.14003   0.15198
 Alpha virt. eigenvalues --    0.15965   0.16695   0.17307   0.18239   0.19276

 Mulliken charges:
               1
     1  C   -0.301023
     2  C   -0.299409
     3  C   -0.272239
     4  C   -0.235990
     5  C   -0.226483
     6  C   -0.369973
     7  C   -0.389687
     8  H    0.125750
     9  H    0.125802
    10  H    0.162567
    11  H    0.145307
    12  H    0.143938
    13  H    0.149753
    14  H    0.131932
    15  H    0.135858
    16  H    0.125687
    17  H    0.125947
    18  H    0.116454
    19  H    0.118390
    20  H    0.119956
    21  H    0.123137
    22  H    0.121319
    23  H    0.123007
 Sum of Mulliken charges =  -0.00000

 Dipole moment (field-independent basis, Debye):
    X=             -0.0653    Y=              0.0270    Z=              0.0022  Tot=              0.0707
 Quadrupole moment (field-independent basis, Debye-Ang):
   XX=            -48.9011   YY=            -49.0522   ZZ=            -48.6014
   XY=             -0.2502   XZ=              0.1963   YZ=              0.0724

  Exact polarizability:  97.743   0.113  81.409  -0.214   0.001  75.285
 Approx polarizability:  98.169  -0.009  96.660  -0.048   0.265  97.362

                      1                      2                      3
                      A                      A                      A
 Frequencies --     47.9583                90.0053               137.3544
 Red. masses --      2.7961                 2.1949                 1.9539
 Frc consts  --      0.0038                 0.0105                 0.0217
 IR Inten    --      0.0064                 0.0535                 0.0064

                      4                      5                      6
                      A                      A                      A
 Frequencies --    146.2533               230.6179               264.0943
 Red. masses --      1.8916                 1.5105                 1.3883
 Frc consts  --      0.0238                 0.0473                 0.0570
 IR Inten    --      0.0052                 0.0518                 0.0989

                      7                      8                      9
                      A                      A                      A
 Frequencies --    304.6304               319.9930               327.2270
 Red. masses --      1.5236                 1.8150                 1.6898
 Frc consts  --      0.0833                 0.1095                 0.1066
 IR Inten    --      0.0376                 0.0572                 0.1459

                     10                     11                     12
                      A                      A                      A
 Frequencies --    431.6332               499.9551               733.2588
 Red. masses --      2.0960                 1.9502                 1.2452
 Frc consts  --      0.2301                 0.2872                 0.3945
 IR Inten    --      0.1614                 0.0830                 3.7751

                     13                     14                     15
                      A                      A                      A
 Frequencies --    770.7102               796.4165               831.1694
 Red. masses --      1.1693                 1.2706                 1.8746
 Frc consts  --      0.4092                 0.4748                 0.7630
 IR Inten    --      2.3841                 1.3066                 1.7748

                     16                     17                     18
                      A                      A                      A
 Frequencies --    876.9264               910.4059               949.0331
 Red. masses --      1.8260                 1.7681                 1.4290
 Frc consts  --      0.8273                 0.8634                 0.7583
 IR Inten    --      0.8249                 1.3126                 0.4867

                     19                     20                     21
                      A                      A                      A
 Frequencies --    962.4349              1016.5693              1065.7250
 Red. masses --      1.7742                 1.7514                 1.4644
 Frc consts  --      0.9683                 1.0663                 0.9800
 IR Inten    --      0.6966                 1.4989                 0.0050

                     22                     23                     24
                      A                      A                      A
 Frequencies --   1072.0941              1097.8984              1119.8935
 Red. masses --      1.3855                 2.2206                 2.0109
 Frc consts  --      0.9382                 1.5771                 1.4859
 IR Inten    --      1.2200                 0.6188                 0.3144

                     25                     26                     27
                      A                      A                      A
 Frequencies --   1149.9285              1184.5159              1237.3116
 Red. masses --      2.0345                 2.0149                 1.3923
 Frc consts  --      1.5851                 1.6656                 1.2559
 IR Inten    --      1.4839                 0.1462                 1.0029

                     28                     29                     30
                      A                      A                      A
 Frequencies --   1255.6866              1296.7143              1314.2266
 Red. masses --      1.3005                 1.2532                 1.1858
 Frc consts  --      1.2082                 1.2416                 1.2067
 IR Inten    --      0.7148                 0.1002                 1.1969

                     31                     32                     33
                      A                      A                      A
 Frequencies --   1325.0678              1342.9466              1379.0930
 Red. masses --      1.1651                 1.1808                 1.3828
 Frc consts  --      1.2053                 1.2547                 1.5495
 IR Inten    --      0.3817                 1.0230                 2.9526

                     34                     35                     36
                      A                      A                      A
 Frequencies --   1381.3624              1384.4397              1401.4082
 Red. masses --      1.3747                 1.4624                 1.5194
 Frc consts  --      1.5455                 1.6515                 1.7581
 IR Inten    --      0.1650                 0.2894                 1.4648

                     37                     38                     39
                      A                      A                      A
 Frequencies --   1415.7700              1417.0613              1485.9224
 Red. masses --      1.3084                 1.3318                 1.0695
 Frc consts  --      1.5452                 1.5756                 1.3914
 IR Inten    --      0.8416                10.2070                 1.6412

                     40                     41                     42
                      A                      A                      A
 Frequencies --   1490.3527              1493.2875              1494.8109
 Red. masses --      1.0684                 1.0619                 1.0747
 Frc consts  --      1.3982                 1.3952                 1.4149
 IR Inten    --      0.6350                 1.4717                 0.7084

                     43                     44                     45
                      A                      A                      A
 Frequencies --   1504.4290              1505.8501              1509.8999
 Red. masses --      1.0556                 1.0884                 1.0633
 Frc consts  --      1.4077                 1.4541                 1.4283
 IR Inten    --      5.7427                 8.5877                12.5417

                     46                     47                     48
                      A                      A                      A
 Frequencies --   1512.8791              1517.4270              3028.7119
 Red. masses --      1.0644                 1.0614                 1.0693
 Frc consts  --      1.4354                 1.4400                 5.7792
 IR Inten    --      6.4968                 3.2588                 4.1501

                     49                     50                     51
                      A                      A                      A
 Frequencies --   3039.8071              3044.3922              3049.6245
 Red. masses --      1.0682                 1.0673                 1.0595
 Frc consts  --      5.8156                 5.8282                 5.8054
 IR Inten    --      8.2079                16.0595                25.1108

                     52                     53                     54
                      A                      A                      A
 Frequencies --   3049.9407              3056.0750              3058.6369
 Red. masses --      1.0614                 1.0383                 1.0377
 Frc consts  --      5.8173                 5.7133                 5.7199
 IR Inten    --     47.9650                20.1361                23.6450

                     55                     56                     57
                      A                      A                      A
 Frequencies --   3081.6902              3086.4630              3089.0474
 Red. masses --      1.0958                 1.0999                 1.0967
 Frc consts  --      6.1314                 6.1737                 6.1657
 IR Inten    --     10.9490                18.7315                33.5824

                     58                     59                     60
                      A                      A                      A
 Frequencies --   3093.8245              3107.9172              3124.5474
 Red. masses --      1.0963                 1.0970                 1.1023
 Frc consts  --      6.1827                 6.2429                 6.3407
 IR Inten    --     17.2365                73.0601                38.8910

                     61                     62                     63
                      A                      A                      A
 Frequencies --   3126.0323              3130.2508              3136.5607
 Red. masses --      1.1005                 1.1011                 1.1017
 Frc consts  --      6.3363                 6.3567                 6.3859
 IR Inten    --     31.8528                33.1800                35.3537

 - Thermochemistry -
 -------------------
 Temperature   298.150 Kelvin.  Pressure   1.00000 Atm.
 Atom     1 has atomic number  6 and mass  12.00000

 Molecular mass:   100.12520 amu.
 Principal axes and moments of inertia in atomic units:
                           1         2         3
     Eigenvalues --   345.815791597.852321775.72423
           X            0.99997   0.00736  -0.00182
           Y           -0.00736   0.99997  -0.00276
           Z            0.00180   0.00277   0.99999
 This molecule is an asymmetric top.
 Rotational symmetry number  1.
 Rotational temperatures (Kelvin)      0.25046     0.05421     0.04878
 Rotational constants (GHZ):           5.21879     1.12948     1.01634
 Zero-point vibrational energy     576038.8 (Joules/Mol)
                                  137.67658 (Kcal/Mol)
 Warning -- explicit consideration of  11 degrees of freedom as
           vibrations may cause significant error
 Vibrational temperatures:     69.00   129.50   197.62   210.43   331.81
          (Kelvin)            379.97   438.30   460.40   470.81   621.02
                              719.32  1055.00  1108.88  1145.87  1195.87
                             1261.70  1309.87  1365.45  1384.73  1462.62
                             1533.34  1542.50  1579.63  1611.28  1654.49
                             1704.25  1780.22  1806.65  1865.68  1890.88
                             1906.48  1932.20  1984.21  1987.47  1991.90
                             2016.31  2036.98  2038.84  2137.91  2144.29
                             2148.51  2150.70  2164.54  2166.58  2172.41
                             2176.70  2183.24  4357.64  4373.60  4380.20
                             4387.73  4388.18  4397.01  4400.70  4433.86
                             4440.73  4444.45  4451.32  4471.60  4495.53
                             4497.66  4503.73  4512.81

 Zero-point correction=                           0.219402 (Hartree/Particle)
 Thermal correction to Energy=                    0.228696
 Thermal correction to Enthalpy=                  0.229640
 Thermal correction to Gibbs Free Energy=         0.185241
 Sum of electronic and zero-point Energies=           -276.117155
 Sum of electronic and thermal Energies=              -276.107860
 Sum of electronic and thermal Enthalpies=            -276.106916
 Sum of electronic and thermal Free Energies=         -276.151316

                     E (Thermal)             CV                S
                      KCal/Mol        Cal/Mol-Kelvin    Cal/Mol-Kelvin
 Total                  143.509             33.624             93.447
 Electronic               0.000              0.000              0.000
 Translational            0.889              2.981             39.722
 Rotational               0.889              2.981             28.375
 Vibrational            141.731             27.662             25.350
 Vibration     1          0.595              1.978              4.900
 Vibration     2          0.602              1.956              3.660
 Vibration     3          0.614              1.916              2.840
 Vibration     4          0.617              1.907              2.720
 Vibration     5          0.652              1.794              1.874
 Vibration     6          0.671              1.739              1.635
 Vibration     7          0.696              1.665              1.391
 Vibration     8          0.706              1.635              1.310
 Vibration     9          0.711              1.621              1.274
 Vibration    10          0.793              1.401              0.853
 Vibration    11          0.855              1.250              0.658

 Optimization completed.
    -- Stationary point found.
 Normal termination of Gaussian 16 at Sun Sep 29 11:34:08 2019.
