 Gaussian 16, Revision A.03,
 Gaussian 16:  EM64L-G16RevA.03 25-Dec-2016

 ----------------------------------------------------------------------
 #p m062x/cc-pVTZ opt=(calcfc,maxcycles=900,Tight) freq IOP(7/33=1,2/16
 =3) scf=(maxcycle=900)
 ----------------------------------------------------------------------

 ------------------------------
 Gaussian input prepared by ASE
 ------------------------------
 Symbolic Z-matrix:
 Charge =  0 Multiplicity = 1

 SCF Done:  E(RM062X) =  -276.312092355     A.U. after   11 cycles
 SCF Done:  E(RM062X) =  -276.326863642     A.U. after   11 cycles
 SCF Done:  E(RM062X) =  -276.324573486     A.U. after   10 cycles
 SCF Done:  E(RM062X) =  -276.330384997     A.U. after   10 cycles
 SCF Done:  E(RM062X) =  -276.331630741     A.U. after   10 cycles
 SCF Done:  E(RM062X) =  -276.332721192     A.U. after    9 cycles
 SCF Done:  E(RM062X) =  -276.333410793     A.U. after    9 cycles
 SCF Done:  E(RM062X) =  -276.333659933     A.U. after    9 cycles
 SCF Done:  E(RM062X) =  -276.333826723     A.U. after    8 cycles
 SCF Done:  E(RM062X) =  -276.333971104     A.U. after    8 cycles
 SCF Done:  E(RM062X) =  -276.334127711     A.U. after    9 cycles
 SCF Done:  E(RM062X) =  -276.334220515     A.U. after    8 cycles
 SCF Done:  E(RM062X) =  -276.334314971     A.U. after    9 cycles
 SCF Done:  E(RM062X) =  -276.334577618     A.U. after    6 cycles
 SCF Done:  E(RM062X) =  -276.334577769     A.U. after    5 cycles
 SCF Done:  E(RM062X) =  -276.334577772     A.U. after    4 cycles
 SCF Done:  E(RM062X) =  -276.334577772     A.U. after    3 cycles
 Optimization completed.
    -- Stationary point found.
 Normal termination of Gaussian 16 at Sun Sep 29 06:43:51 2019.

 ----------------------------------------------------------------------
 #P Geom=AllCheck Guess=TCheck SCRF=Check Test GenChk RM062X/CC-pVTZ Fr
 eq
 ----------------------------------------------------------------------

 Structure from the checkpoint file:  "/scratch/harms.n/gauss_scrdir/Gau-3759.chk"
 ------------------------------
 Gaussian input prepared by ASE
 ------------------------------
 Charge =  0 Multiplicity = 1

                         Standard orientation:
 ---------------------------------------------------------------------
 Center     Atomic      Atomic             Coordinates (Angstroms)
 Number     Number       Type             X           Y           Z
 ---------------------------------------------------------------------
      1          6           0       -0.825737   -0.999259   -0.251887
      2          6           0       -0.000004    0.000003   -1.078388
      3          6           0        0.825734    0.999256   -0.251881
      4          6           0       -2.268429   -0.550953   -0.018252
      5          6           0        2.268429    0.550952   -0.018260
      6          6           0       -2.393699    0.775486    0.722672
      7          6           0        2.393706   -0.775484    0.722672
      8          1           0       -2.796463   -1.326742    0.540106
      9          1           0       -2.771426   -0.471041   -0.985827
     10          1           0       -0.342662   -1.164772    0.714475
     11          1           0       -0.844376   -1.967830   -0.755282
     12          1           0       -0.681804    0.541922   -1.738867
     13          1           0        0.681792   -0.541908   -1.738878
     14          1           0        0.342665    1.164758    0.714486
     15          1           0        0.844368    1.967833   -0.755264
     16          1           0        2.771415    0.471033   -0.985840
     17          1           0        2.796467    1.326748    0.540087
     18          1           0       -1.899697    0.727267    1.694934
     19          1           0       -1.937541    1.590861    0.159707
     20          1           0       -3.438874    1.033693    0.890732
     21          1           0        1.937548   -1.590862    0.159711
     22          1           0        1.899704   -0.727264    1.694935
     23          1           0        3.438881   -1.033692    0.890732
 ---------------------------------------------------------------------

 SCF Done:  E(RM062X) =  -276.334577772     A.U. after    1 cycles

 The electronic state is 1-A.
 Alpha  occ. eigenvalues --  -10.52632 -10.52632 -10.52483 -10.52403 -10.52394
 Alpha  occ. eigenvalues --  -10.51932 -10.51931  -0.91205  -0.87506  -0.81750
 Alpha  occ. eigenvalues --   -0.77112  -0.71231  -0.65454  -0.64040  -0.54578
 Alpha  occ. eigenvalues --   -0.52116  -0.51516  -0.50688  -0.46998  -0.45836
 Alpha  occ. eigenvalues --   -0.44189  -0.43961  -0.42210  -0.40721  -0.39309
 Alpha  occ. eigenvalues --   -0.38476  -0.37014  -0.36425  -0.35812
 Alpha virt. eigenvalues --    0.06672   0.08535   0.08700   0.08926   0.11717
 Alpha virt. eigenvalues --    0.11829   0.12606   0.13589   0.13698   0.15301
 Alpha virt. eigenvalues --    0.16322   0.16968   0.17059   0.17730   0.19760

 Mulliken charges:
               1
     1  C   -0.283770
     2  C   -0.320629
     3  C   -0.283772
     4  C   -0.229520
     5  C   -0.229520
     6  C   -0.392095
     7  C   -0.392094
     8  H    0.125556
     9  H    0.125066
    10  H    0.150995
    11  H    0.140070
    12  H    0.152376
    13  H    0.152376
    14  H    0.150996
    15  H    0.140070
    16  H    0.125065
    17  H    0.125556
    18  H    0.122200
    19  H    0.126376
    20  H    0.123060
    21  H    0.126376
    22  H    0.122200
    23  H    0.123060
 Sum of Mulliken charges =  -0.00000

 Dipole moment (field-independent basis, Debye):
    X=             -0.0000    Y=             -0.0000    Z=             -0.0519  Tot=              0.0519
 Quadrupole moment (field-independent basis, Debye-Ang):
   XX=            -48.7135   YY=            -49.1945   ZZ=            -48.6095
   XY=              0.2580   XZ=              0.0000   YZ=             -0.0000

  Exact polarizability:  94.889   0.024  81.081  -0.000  -0.000  76.934
 Approx polarizability:  98.426   0.020  96.859  -0.000  -0.000  97.214

                      1                      2                      3
                      A                      A                      A
 Frequencies --     76.2820                90.3391               133.4359
 Red. masses --      2.6927                 2.4557                 2.1739
 Frc consts  --      0.0092                 0.0118                 0.0228
 IR Inten    --      0.0008                 0.0440                 0.0272

                      4                      5                      6
                      A                      A                      A
 Frequencies --    178.7807               248.6885               287.3999
 Red. masses --      1.8648                 1.9662                 1.0698
 Frc consts  --      0.0351                 0.0716                 0.0521
 IR Inten    --      0.0033                 0.0071                 0.1031

                      7                      8                      9
                      A                      A                      A
 Frequencies --    305.9921               321.7249               352.9868
 Red. masses --      1.3786                 1.8819                 1.9660
 Frc consts  --      0.0761                 0.1148                 0.1443
 IR Inten    --      0.0000                 0.0453                 0.0248

                     10                     11                     12
                      A                      A                      A
 Frequencies --    458.0045               467.1571               758.4749
 Red. masses --      1.6554                 1.6955                 1.1816
 Frc consts  --      0.2046                 0.2180                 0.4005
 IR Inten    --      0.1310                 0.5795                 0.8602

                     13                     14                     15
                      A                      A                      A
 Frequencies --    779.1197               811.6340               823.7862
 Red. masses --      1.3583                 2.0903                 2.1775
 Frc consts  --      0.4858                 0.8113                 0.8706
 IR Inten    --      1.6057                 2.2679                 1.1735

                     16                     17                     18
                      A                      A                      A
 Frequencies --    864.3620               910.8093               943.6466
 Red. masses --      1.3019                 1.5151                 1.6646
 Frc consts  --      0.5731                 0.7406                 0.8733
 IR Inten    --      0.9671                 0.3189                 3.6655

                     19                     20                     21
                      A                      A                      A
 Frequencies --    950.7816              1014.7800              1065.8603
 Red. masses --      1.8369                 1.6462                 1.5569
 Frc consts  --      0.9784                 0.9988                 1.0421
 IR Inten    --      0.0006                 4.3708                 2.9463

                     22                     23                     24
                      A                      A                      A
 Frequencies --   1076.5106              1089.5947              1132.7864
 Red. masses --      1.4163                 2.0225                 1.9054
 Frc consts  --      0.9671                 1.4147                 1.4406
 IR Inten    --      0.0002                 0.0036                 0.1916

                     25                     26                     27
                      A                      A                      A
 Frequencies --   1154.4711              1157.7371              1248.2670
 Red. masses --      1.8747                 2.0035                 1.2879
 Frc consts  --      1.4721                 1.5822                 1.1824
 IR Inten    --      0.5398                 0.6718                 0.1166

                     28                     29                     30
                      A                      A                      A
 Frequencies --   1250.6487              1293.4532              1308.4411
 Red. masses --      1.3438                 1.2202                 1.2149
 Frc consts  --      1.2384                 1.2028                 1.2255
 IR Inten    --      0.4177                 0.5020                 0.4878

                     31                     32                     33
                      A                      A                      A
 Frequencies --   1319.8055              1355.4808              1381.2572
 Red. masses --      1.1308                 1.2988                 1.4490
 Frc consts  --      1.1606                 1.4060                 1.6288
 IR Inten    --      0.0293                 2.0310                 3.3242

                     34                     35                     36
                      A                      A                      A
 Frequencies --   1382.7503              1386.3148              1387.0639
 Red. masses --      1.3133                 1.4642                 1.4487
 Frc consts  --      1.4795                 1.6580                 1.6422
 IR Inten    --      0.1352                 0.6520                 0.0545

                     37                     38                     39
                      A                      A                      A
 Frequencies --   1416.7584              1416.9676              1488.9295
 Red. masses --      1.3040                 1.3115                 1.0776
 Frc consts  --      1.5421                 1.5514                 1.4076
 IR Inten    --      7.6792                 3.2192                 4.2398

                     40                     41                     42
                      A                      A                      A
 Frequencies --   1489.2657              1494.0350              1495.7949
 Red. masses --      1.0669                 1.0713                 1.0666
 Frc consts  --      1.3942                 1.4090                 1.4061
 IR Inten    --      0.3489                 0.0495                 0.5077

                     43                     44                     45
                      A                      A                      A
 Frequencies --   1504.1180              1504.5216              1511.4441
 Red. masses --      1.0444                 1.0747                 1.0729
 Frc consts  --      1.3921                 1.4332                 1.4441
 IR Inten    --      5.6761                 1.6751                 3.3718

                     46                     47                     48
                      A                      A                      A
 Frequencies --   1514.0471              1516.0899              3045.9546
 Red. masses --      1.0720                 1.0584                 1.0621
 Frc consts  --      1.4478                 1.4333                 5.8057
 IR Inten    --     14.7919                19.3315                21.5486

                     49                     50                     51
                      A                      A                      A
 Frequencies --   3048.6592              3049.1599              3051.7493
 Red. masses --      1.0620                 1.0615                 1.0636
 Frc consts  --      5.8157                 5.8147                 5.8361
 IR Inten    --     29.8098                 1.2713                10.5849

                     52                     53                     54
                      A                      A                      A
 Frequencies --   3055.5009              3057.1649              3058.7841
 Red. masses --      1.0441                 1.0382                 1.0561
 Frc consts  --      5.7433                 5.7172                 5.8217
 IR Inten    --      7.0263                48.7980                 4.6093

                     55                     56                     57
                      A                      A                      A
 Frequencies --   3079.5736              3085.4310              3088.2532
 Red. masses --      1.1013                 1.0977                 1.0964
 Frc consts  --      6.1537                 6.1570                 6.1609
 IR Inten    --     36.7926                 3.6906                48.7681

                     58                     59                     60
                      A                      A                      A
 Frequencies --   3095.2149              3101.5561              3124.6288
 Red. masses --      1.1038                 1.1019                 1.1020
 Frc consts  --      6.2306                 6.2455                 6.3389
 IR Inten    --     20.2325                58.2035                27.7383

                     61                     62                     63
                      A                      A                      A
 Frequencies --   3124.8239              3131.9108              3132.1417
 Red. masses --      1.1021                 1.1015                 1.1013
 Frc consts  --      6.3403                 6.3661                 6.3656
 IR Inten    --     51.4590                63.1765                 3.0172

 - Thermochemistry -
 -------------------
 Temperature   298.150 Kelvin.  Pressure   1.00000 Atm.
 Atom     1 has atomic number  6 and mass  12.00000

 Molecular mass:   100.12520 amu.
 Principal axes and moments of inertia in atomic units:
                           1         2         3
     Eigenvalues --   412.020561414.878221496.42697
           X            0.99996  -0.00927  -0.00000
           Y            0.00927   0.99996  -0.00000
           Z            0.00000   0.00000   1.00000
 This molecule is an asymmetric top.
 Rotational symmetry number  1.
 Rotational temperatures (Kelvin)      0.21022     0.06122     0.05788
 Rotational constants (GHZ):           4.38022     1.27555     1.20603
 Zero-point vibrational energy     576905.7 (Joules/Mol)
                                  137.88378 (Kcal/Mol)
 Warning -- explicit consideration of  11 degrees of freedom as
           vibrations may cause significant error
 Vibrational temperatures:    109.75   129.98   191.98   257.23   357.81
          (Kelvin)            413.50   440.25   462.89   507.87   658.97
                              672.13  1091.28  1120.98  1167.76  1185.24
                             1243.62  1310.45  1357.70  1367.96  1460.04
                             1533.54  1548.86  1567.68  1629.83  1661.03
                             1665.73  1795.98  1799.40  1860.99  1882.55
                             1898.91  1950.23  1987.32  1989.47  1994.60
                             1995.68  2038.40  2038.70  2142.24  2142.72
                             2149.58  2152.12  2164.09  2164.67  2174.63
                             2178.38  2181.32  4382.45  4386.34  4387.06
                             4390.79  4396.18  4398.58  4400.91  4430.82
                             4439.25  4443.31  4453.32  4462.45  4495.64
                             4495.92  4506.12  4506.45

 Zero-point correction=                           0.219732 (Hartree/Particle)
 Thermal correction to Energy=                    0.228825
 Thermal correction to Enthalpy=                  0.229769
 Thermal correction to Gibbs Free Energy=         0.186223
 Sum of electronic and zero-point Energies=           -276.114846
 Sum of electronic and thermal Energies=              -276.105753
 Sum of electronic and thermal Enthalpies=            -276.104808
 Sum of electronic and thermal Free Energies=         -276.148355

                     E (Thermal)             CV                S
                      KCal/Mol        Cal/Mol-Kelvin    Cal/Mol-Kelvin
 Total                  143.590             33.437             91.651
 Electronic               0.000              0.000              0.000
 Translational            0.889              2.981             39.722
 Rotational               0.889              2.981             28.258
 Vibrational            141.813             27.476             23.671
 Vibration     1          0.599              1.965              3.984
 Vibration     2          0.602              1.956              3.653
 Vibration     3          0.613              1.920              2.896
 Vibration     4          0.629              1.868              2.341
 Vibration     5          0.662              1.765              1.740
 Vibration     6          0.685              1.697              1.489
 Vibration     7          0.696              1.662              1.384
 Vibration     8          0.707              1.632              1.301
 Vibration     9          0.729              1.569              1.153
 Vibration    10          0.816              1.343              0.772
 Vibration    11          0.824              1.323              0.746

 Optimization completed.
    -- Stationary point found.
 Normal termination of Gaussian 16 at Sun Sep 29 09:36:20 2019.
