 Gaussian 16, Revision A.03,
 Gaussian 16:  EM64L-G16RevA.03 25-Dec-2016

 ----------------------------------------------------------------------
 #p m062x/cc-pVTZ opt=(calcfc,maxcycles=900,Tight) freq IOP(7/33=1,2/16
 =3) scf=(maxcycle=900)
 ----------------------------------------------------------------------

 ------------------------------
 Gaussian input prepared by ASE
 ------------------------------
 Symbolic Z-matrix:
 Charge =  0 Multiplicity = 1

 SCF Done:  E(RM062X) =  -276.314070827     A.U. after   11 cycles
 SCF Done:  E(RM062X) =  -276.329194529     A.U. after   11 cycles
 SCF Done:  E(RM062X) =  -276.331744647     A.U. after   11 cycles
 SCF Done:  E(RM062X) =  -276.336827953     A.U. after   11 cycles
 SCF Done:  E(RM062X) =  -276.339089664     A.U. after   10 cycles
 SCF Done:  E(RM062X) =  -276.339977282     A.U. after    9 cycles
 SCF Done:  E(RM062X) =  -276.339949891     A.U. after    9 cycles
 SCF Done:  E(RM062X) =  -276.340214551     A.U. after    9 cycles
 SCF Done:  E(RM062X) =  -276.340250834     A.U. after    8 cycles
 SCF Done:  E(RM062X) =  -276.340254963     A.U. after    8 cycles
 SCF Done:  E(RM062X) =  -276.340258632     A.U. after    6 cycles
 SCF Done:  E(RM062X) =  -276.340261542     A.U. after    7 cycles
 SCF Done:  E(RM062X) =  -276.340261908     A.U. after    5 cycles
 SCF Done:  E(RM062X) =  -276.340262049     A.U. after    5 cycles
 SCF Done:  E(RM062X) =  -276.340262121     A.U. after    5 cycles
 SCF Done:  E(RM062X) =  -276.340262135     A.U. after    4 cycles
 SCF Done:  E(RM062X) =  -276.340262143     A.U. after    4 cycles
 SCF Done:  E(RM062X) =  -276.340262137     A.U. after    4 cycles
 SCF Done:  E(RM062X) =  -276.340262143     A.U. after    4 cycles
 Optimization completed.
    -- Stationary point found.
 Normal termination of Gaussian 16 at Sun Sep 29 04:27:44 2019.

 ----------------------------------------------------------------------
 #P Geom=AllCheck Guess=TCheck SCRF=Check Test GenChk RM062X/CC-pVTZ Fr
 eq
 ----------------------------------------------------------------------

 Structure from the checkpoint file:  "/scratch/harms.n/gauss_scrdir/Gau-42443.chk"
 ------------------------------
 Gaussian input prepared by ASE
 ------------------------------
 Charge =  0 Multiplicity = 1

                         Standard orientation:
 ---------------------------------------------------------------------
 Center     Atomic      Atomic             Coordinates (Angstroms)
 Number     Number       Type             X           Y           Z
 ---------------------------------------------------------------------
      1          6           0       -1.400865    0.761438    0.317332
      2          6           0        0.022000    1.051162   -0.153177
      3          6           0        1.020374   -0.057638    0.161205
      4          6           0       -2.035887   -0.463681   -0.332536
      5          6           0        2.454148    0.318354   -0.192960
      6          6           0       -3.495417   -0.637401    0.068354
      7          6           0        3.444893   -0.799253    0.106162
      8          1           0       -1.476324   -1.359940   -0.057982
      9          1           0       -1.958454   -0.372184   -1.419820
     10          1           0       -2.030394    1.631853    0.113060
     11          1           0       -1.403226    0.630222    1.404250
     12          1           0        0.369988    1.978428    0.309959
     13          1           0        0.015771    1.231340   -1.232901
     14          1           0        0.750417   -0.968808   -0.379246
     15          1           0        0.963656   -0.304580    1.226919
     16          1           0        2.503240    0.581476   -1.252952
     17          1           0        2.735290    1.218941    0.359071
     18          1           0       -3.588940   -0.742263    1.150417
     19          1           0       -4.085942    0.229828   -0.230700
     20          1           0       -3.938197   -1.519846   -0.392462
     21          1           0        3.197777   -1.698324   -0.460313
     22          1           0        3.425076   -1.061082    1.165153
     23          1           0        4.464783   -0.512953   -0.148734
 ---------------------------------------------------------------------

 SCF Done:  E(RM062X) =  -276.340262143     A.U. after    1 cycles

 The electronic state is 1-A.
 Alpha  occ. eigenvalues --  -10.52620 -10.52577 -10.52476 -10.52439 -10.52393
 Alpha  occ. eigenvalues --  -10.51937 -10.51934  -0.91231  -0.87784  -0.82672
 Alpha  occ. eigenvalues --   -0.76262  -0.69947  -0.66820  -0.64332  -0.54735
 Alpha  occ. eigenvalues --   -0.53204  -0.49876  -0.49500  -0.48755  -0.45643
 Alpha  occ. eigenvalues --   -0.45151  -0.43369  -0.41328  -0.40217  -0.39679
 Alpha  occ. eigenvalues --   -0.38402  -0.37649  -0.36676  -0.36369
 Alpha virt. eigenvalues --    0.07047   0.07928   0.08990   0.09347   0.10450
 Alpha virt. eigenvalues --    0.12189   0.12893   0.14288   0.14707   0.15216
 Alpha virt. eigenvalues --    0.16174   0.16671   0.17691   0.18379   0.18762

 Mulliken charges:
               1
     1  C   -0.261060
     2  C   -0.269727
     3  C   -0.256392
     4  C   -0.241377
     5  C   -0.231814
     6  C   -0.353418
     7  C   -0.352044
     8  H    0.130984
     9  H    0.126817
    10  H    0.131467
    11  H    0.133454
    12  H    0.132707
    13  H    0.135028
    14  H    0.136673
    15  H    0.131030
    16  H    0.121603
    17  H    0.122054
    18  H    0.109451
    19  H    0.109516
    20  H    0.113592
    21  H    0.108727
    22  H    0.109078
    23  H    0.113654
 Sum of Mulliken charges =  -0.00000

 Dipole moment (field-independent basis, Debye):
    X=              0.0299    Y=              0.0351    Z=             -0.0386  Tot=              0.0601
 Quadrupole moment (field-independent basis, Debye-Ang):
   XX=            -49.8521   YY=            -49.0042   ZZ=            -48.2742
   XY=              0.2174   XZ=              0.2825   YZ=              0.1561

  Exact polarizability: 103.167  -0.028  79.882  -0.644  -0.248  74.957
 Approx polarizability:  98.182   0.121  96.896  -0.222  -0.172  96.930

                      1                      2                      3
                      A                      A                      A
 Frequencies --     66.4859                72.6389                97.3202
 Red. masses --      1.7176                 1.7620                 2.6358
 Frc consts  --      0.0045                 0.0055                 0.0147
 IR Inten    --      0.0043                 0.0147                 0.0008

                      4                      5                      6
                      A                      A                      A
 Frequencies --    125.9654               206.2944               241.3082
 Red. masses --      2.2821                 2.0703                 1.2981
 Frc consts  --      0.0213                 0.0519                 0.0445
 IR Inten    --      0.0096                 0.0187                 0.0132

                      7                      8                      9
                      A                      A                      A
 Frequencies --    247.9845               274.2704               311.4529
 Red. masses --      1.1189                 1.7166                 3.0665
 Frc consts  --      0.0405                 0.0761                 0.1753
 IR Inten    --      0.0013                 0.0472                 0.0277

                     10                     11                     12
                      A                      A                      A
 Frequencies --    406.9553               516.6613               729.8475
 Red. masses --      2.5476                 2.5761                 1.1107
 Frc consts  --      0.2486                 0.4052                 0.3486
 IR Inten    --      0.0581                 0.0424                 4.1817

                     13                     14                     15
                      A                      A                      A
 Frequencies --    746.7508               785.4681               854.3929
 Red. masses --      1.1070                 1.2270                 1.3354
 Frc consts  --      0.3637                 0.4460                 0.5743
 IR Inten    --      1.5484                 0.4962                 0.0776

                     16                     17                     18
                      A                      A                      A
 Frequencies --    870.4747               918.5448               944.4141
 Red. masses --      1.7907                 1.5798                 1.2244
 Frc consts  --      0.7994                 0.7853                 0.6434
 IR Inten    --      0.1896                 3.1920                 2.8859

                     19                     20                     21
                      A                      A                      A
 Frequencies --    987.9448              1040.4923              1057.7687
 Red. masses --      2.1303                 1.2248                 2.6767
 Frc consts  --      1.2251                 0.7812                 1.7645
 IR Inten    --      0.6395                 1.0538                 0.2493

                     22                     23                     24
                      A                      A                      A
 Frequencies --   1073.3695              1094.6263              1111.0912
 Red. masses --      2.0824                 1.8525                 2.0764
 Frc consts  --      1.4136                 1.3078                 1.5103
 IR Inten    --      0.5190                 0.5856                 0.2296

                     25                     26                     27
                      A                      A                      A
 Frequencies --   1164.9114              1196.9219              1244.5891
 Red. masses --      2.3358                 2.0011                 1.4502
 Frc consts  --      1.8676                 1.6891                 1.3235
 IR Inten    --      1.4598                 0.1457                 0.4258

                     28                     29                     30
                      A                      A                      A
 Frequencies --   1271.1964              1296.0794              1310.8538
 Red. masses --      1.3622                 1.2781                 1.3078
 Frc consts  --      1.2969                 1.2650                 1.3241
 IR Inten    --      0.6239                 0.5390                 1.1934

                     31                     32                     33
                      A                      A                      A
 Frequencies --   1331.6908              1333.4286              1344.3796
 Red. masses --      1.1535                 1.0904                 1.1375
 Frc consts  --      1.2053                 1.1423                 1.2113
 IR Inten    --      0.4111                 0.9328                 0.7626

                     34                     35                     36
                      A                      A                      A
 Frequencies --   1377.8307              1405.5215              1410.4289
 Red. masses --      1.4249                 1.6332                 1.6167
 Frc consts  --      1.5938                 1.9009                 1.8948
 IR Inten    --      0.1713                 0.1205                 1.9559

                     37                     38                     39
                      A                      A                      A
 Frequencies --   1414.4144              1415.4131              1485.1220
 Red. masses --      1.2770                 1.2965                 1.0758
 Frc consts  --      1.5052                 1.5304                 1.3980
 IR Inten    --      4.4225                 2.4546                 2.0663

                     40                     41                     42
                      A                      A                      A
 Frequencies --   1489.4879              1492.2498              1498.5971
 Red. masses --      1.0713                 1.0687                 1.0665
 Frc consts  --      1.4003                 1.4021                 1.4112
 IR Inten    --      0.4035                 0.8572                 0.9277

                     43                     44                     45
                      A                      A                      A
 Frequencies --   1502.7245              1504.2468              1504.5482
 Red. masses --      1.0758                 1.0393                 1.0398
 Frc consts  --      1.4313                 1.3856                 1.3868
 IR Inten    --      1.0291                 5.9982                 8.7674

                     46                     47                     48
                      A                      A                      A
 Frequencies --   1512.7305              1514.8831              3030.8352
 Red. masses --      1.0857                 1.0905                 1.0617
 Frc consts  --      1.4638                 1.4745                 5.7463
 IR Inten    --      7.2010                 6.1117                 0.1811

                     49                     50                     51
                      A                      A                      A
 Frequencies --   3035.4509              3039.2378              3050.1468
 Red. masses --      1.0629                 1.0609                 1.0627
 Frc consts  --      5.7700                 5.7735                 5.8252
 IR Inten    --      8.2805                19.3152                30.8485

                     52                     53                     54
                      A                      A                      A
 Frequencies --   3050.4001              3057.3116              3057.5623
 Red. masses --      1.0607                 1.0367                 1.0368
 Frc consts  --      5.8151                 5.7094                 5.7106
 IR Inten    --     41.6794                48.0371                25.3285

                     55                     56                     57
                      A                      A                      A
 Frequencies --   3063.0448              3070.0749              3077.7445
 Red. masses --      1.0962                 1.0957                 1.1026
 Frc consts  --      6.0598                 6.0849                 6.1537
 IR Inten    --      2.4014                13.6513                 3.3982

                     58                     59                     60
                      A                      A                      A
 Frequencies --   3094.2626              3097.1390              3124.9193
 Red. masses --      1.1044                 1.1012                 1.1028
 Frc consts  --      6.2298                 6.2234                 6.3447
 IR Inten    --     55.3657                30.4200                59.2468

                     61                     62                     63
                      A                      A                      A
 Frequencies --   3125.5390              3132.3023              3132.3596
 Red. masses --      1.1027                 1.1016                 1.1016
 Frc consts  --      6.3470                 6.3682                 6.3684
 IR Inten    --     35.5664                21.7542                42.1590

 - Thermochemistry -
 -------------------
 Temperature   298.150 Kelvin.  Pressure   1.00000 Atm.
 Atom     1 has atomic number  6 and mass  12.00000

 Molecular mass:   100.12520 amu.
 Principal axes and moments of inertia in atomic units:
                           1         2         3
     Eigenvalues --   261.456892065.468422213.00581
           X            1.00000  -0.00115  -0.00050
           Y            0.00115   0.99999  -0.00517
           Z            0.00051   0.00517   0.99999
 This molecule is an asymmetric top.
 Rotational symmetry number  1.
 Rotational temperatures (Kelvin)      0.33127     0.04193     0.03914
 Rotational constants (GHZ):           6.90263     0.87377     0.81552
 Zero-point vibrational energy     574465.3 (Joules/Mol)
                                  137.30051 (Kcal/Mol)
 Warning -- explicit consideration of  11 degrees of freedom as
           vibrations may cause significant error
 Vibrational temperatures:     95.66   104.51   140.02   181.24   296.81
          (Kelvin)            347.19   356.79   394.61   448.11   585.52
                              743.36  1050.09  1074.41  1130.11  1229.28
                             1252.42  1321.58  1358.80  1421.43  1497.04
                             1521.89  1544.34  1574.92  1598.61  1676.05
                             1722.10  1790.69  1828.97  1864.77  1886.03
                             1916.01  1918.51  1934.26  1982.39  2022.23
                             2029.29  2035.03  2036.46  2136.76  2143.04
                             2147.01  2156.15  2162.09  2164.28  2164.71
                             2176.48  2179.58  4360.70  4367.34  4372.79
                             4388.48  4388.85  4398.79  4399.15  4407.04
                             4417.15  4428.19  4451.95  4456.09  4496.06
                             4496.95  4506.68  4506.77

 Zero-point correction=                           0.218802 (Hartree/Particle)
 Thermal correction to Energy=                    0.228434
 Thermal correction to Enthalpy=                  0.229378
 Thermal correction to Gibbs Free Energy=         0.184017
 Sum of electronic and zero-point Energies=           -276.121460
 Sum of electronic and thermal Energies=              -276.111828
 Sum of electronic and thermal Enthalpies=            -276.110884
 Sum of electronic and thermal Free Energies=         -276.156246

                     E (Thermal)             CV                S
                      KCal/Mol        Cal/Mol-Kelvin    Cal/Mol-Kelvin
 Total                  143.344             33.969             95.471
 Electronic               0.000              0.000              0.000
 Translational            0.889              2.981             39.722
 Rotational               0.889              2.981             28.571
 Vibrational            141.567             28.007             27.179
 Vibration     1          0.598              1.970              4.255
 Vibration     2          0.599              1.967              4.081
 Vibration     3          0.603              1.951              3.507
 Vibration     4          0.611              1.927              3.007
 Vibration     5          0.641              1.831              2.076
 Vibration     6          0.658              1.777              1.793
 Vibration     7          0.662              1.766              1.745
 Vibration     8          0.677              1.721              1.569
 Vibration     9          0.700              1.652              1.355
 Vibration    10          0.772              1.455              0.937
 Vibration    11          0.872              1.213              0.618

 Optimization completed.
    -- Stationary point found.
 Normal termination of Gaussian 16 at Sun Sep 29 07:52:24 2019.
