 Gaussian 16, Revision A.03,
 Gaussian 16:  EM64L-G16RevA.03 25-Dec-2016

 ----------------------------------------------------------------------
 #p m062x/cc-pVTZ opt=(calcfc,maxcycles=900,Tight) freq IOP(7/33=1,2/16
 =3) scf=(maxcycle=900)
 ----------------------------------------------------------------------

 ------------------------------
 Gaussian input prepared by ASE
 ------------------------------
 Symbolic Z-matrix:
 Charge =  0 Multiplicity = 1

 SCF Done:  E(RM062X) =  -276.317646814     A.U. after   11 cycles
 SCF Done:  E(RM062X) =  -276.330091314     A.U. after   10 cycles
 SCF Done:  E(RM062X) =  -276.334312219     A.U. after   11 cycles
 SCF Done:  E(RM062X) =  -276.337866234     A.U. after   11 cycles
 SCF Done:  E(RM062X) =  -276.338818617     A.U. after   10 cycles
 SCF Done:  E(RM062X) =  -276.338395327     A.U. after   10 cycles
 SCF Done:  E(RM062X) =  -276.339310064     A.U. after    9 cycles
 SCF Done:  E(RM062X) =  -276.339431849     A.U. after    9 cycles
 SCF Done:  E(RM062X) =  -276.339495932     A.U. after    9 cycles
 SCF Done:  E(RM062X) =  -276.339501177     A.U. after    8 cycles
 SCF Done:  E(RM062X) =  -276.339501875     A.U. after    6 cycles
 SCF Done:  E(RM062X) =  -276.339502057     A.U. after    6 cycles
 SCF Done:  E(RM062X) =  -276.339502084     A.U. after    5 cycles
 SCF Done:  E(RM062X) =  -276.339502090     A.U. after    4 cycles
 SCF Done:  E(RM062X) =  -276.339502090     A.U. after    3 cycles
 Optimization completed.
    -- Stationary point found.
 Normal termination of Gaussian 16 at Sun Sep 29 03:20:25 2019.

 ----------------------------------------------------------------------
 #P Geom=AllCheck Guess=TCheck SCRF=Check Test GenChk RM062X/CC-pVTZ Fr
 eq
 ----------------------------------------------------------------------

 Structure from the checkpoint file:  "/scratch/harms.n/gauss_scrdir/Gau-6405.chk"
 ------------------------------
 Gaussian input prepared by ASE
 ------------------------------
 Charge =  0 Multiplicity = 1

                         Standard orientation:
 ---------------------------------------------------------------------
 Center     Atomic      Atomic             Coordinates (Angstroms)
 Number     Number       Type             X           Y           Z
 ---------------------------------------------------------------------
      1          6           0       -1.249922   -0.894684    0.210819
      2          6           0        0.000000   -0.046534    0.000000
      3          6           0        1.249923   -0.894685   -0.210817
      4          6           0       -2.496734   -0.088275    0.566580
      5          6           0        2.496739   -0.088280   -0.566577
      6          6           0       -2.910801    0.899352   -0.519040
      7          6           0        2.910797    0.899357    0.519037
      8          1           0       -2.319754    0.450430    1.501405
      9          1           0       -3.321528   -0.776925    0.759844
     10          1           0       -1.052381   -1.619126    1.005675
     11          1           0       -1.443680   -1.477805   -0.695190
     12          1           0        0.133356    0.608353    0.865972
     13          1           0       -0.133356    0.608351   -0.865974
     14          1           0        1.052380   -1.619128   -1.005672
     15          1           0        1.443681   -1.477804    0.695192
     16          1           0        3.321533   -0.776934   -0.759829
     17          1           0        2.319769    0.450420   -1.501407
     18          1           0       -2.163519    1.680693   -0.655496
     19          1           0       -3.037395    0.389870   -1.476302
     20          1           0       -3.853857    1.385756   -0.271787
     21          1           0        3.037387    0.389887    1.476305
     22          1           0        2.163509    1.680696    0.655479
     23          1           0        3.853851    1.385764    0.271782
 ---------------------------------------------------------------------

 SCF Done:  E(RM062X) =  -276.339502090     A.U. after    1 cycles

 The electronic state is 1-A.
 Alpha  occ. eigenvalues --  -10.52627 -10.52627 -10.52450 -10.52442 -10.52354
 Alpha  occ. eigenvalues --  -10.51898 -10.51898  -0.91230  -0.87805  -0.82206
 Alpha  occ. eigenvalues --   -0.76323  -0.71398  -0.65408  -0.64275  -0.54537
 Alpha  occ. eigenvalues --   -0.52333  -0.51608  -0.50279  -0.47623  -0.46231
 Alpha  occ. eigenvalues --   -0.44385  -0.43116  -0.41547  -0.40874  -0.38871
 Alpha  occ. eigenvalues --   -0.38568  -0.37505  -0.37150  -0.35893
 Alpha virt. eigenvalues --    0.06853   0.08050   0.08968   0.09150   0.11375
 Alpha virt. eigenvalues --    0.12271   0.12314   0.14396   0.14477   0.15035
 Alpha virt. eigenvalues --    0.15468   0.16762   0.17678   0.17779   0.19295

 Mulliken charges:
               1
     1  C   -0.264533
     2  C   -0.280420
     3  C   -0.264532
     4  C   -0.240346
     5  C   -0.240347
     6  C   -0.368109
     7  C   -0.368110
     8  H    0.124787
     9  H    0.125751
    10  H    0.131722
    11  H    0.136293
    12  H    0.141411
    13  H    0.141411
    14  H    0.131722
    15  H    0.136293
    16  H    0.125751
    17  H    0.124787
    18  H    0.118904
    19  H    0.115974
    20  H    0.118356
    21  H    0.115974
    22  H    0.118904
    23  H    0.118356
 Sum of Mulliken charges =   0.00000

 Dipole moment (field-independent basis, Debye):
    X=             -0.0000    Y=             -0.0574    Z=             -0.0000  Tot=              0.0574
 Quadrupole moment (field-independent basis, Debye-Ang):
   XX=            -48.8464   YY=            -49.1553   ZZ=            -48.6517
   XY=              0.0000   XZ=             -0.1716   YZ=             -0.0000

  Exact polarizability:  98.691   0.000  80.306  -0.213  -0.000  76.944
 Approx polarizability:  97.861   0.000  97.098   0.030  -0.000  96.956

                      1                      2                      3
                      A                      A                      A
 Frequencies --     48.4759                91.7006               117.5505
 Red. masses --      2.3049                 2.0839                 2.7258
 Frc consts  --      0.0032                 0.0103                 0.0222
 IR Inten    --      0.0022                 0.0250                 0.0310

                      4                      5                      6
                      A                      A                      A
 Frequencies --    127.9546               168.8288               253.7352
 Red. masses --      1.6838                 1.3635                 1.1880
 Frc consts  --      0.0162                 0.0229                 0.0451
 IR Inten    --      0.0136                 0.0023                 0.0202

                      7                      8                      9
                      A                      A                      A
 Frequencies --    288.9389               306.9879               320.3857
 Red. masses --      1.3759                 2.6265                 2.0782
 Frc consts  --      0.0677                 0.1458                 0.1257
 IR Inten    --      0.0090                 0.0181                 0.0245

                     10                     11                     12
                      A                      A                      A
 Frequencies --    460.3645               470.5595               735.3735
 Red. masses --      2.3250                 2.1636                 1.1231
 Frc consts  --      0.2903                 0.2823                 0.3578
 IR Inten    --      0.0008                 0.6678                 4.3271

                     13                     14                     15
                      A                      A                      A
 Frequencies --    751.5419               790.0986               843.7304
 Red. masses --      1.2056                 1.1626                 1.2865
 Frc consts  --      0.4012                 0.4276                 0.5396
 IR Inten    --      0.5479                 4.0909                 1.5778

                     16                     17                     18
                      A                      A                      A
 Frequencies --    877.9002               907.8610               954.8527
 Red. masses --      2.6195                 2.0749                 1.2795
 Frc consts  --      1.1895                 1.0076                 0.6873
 IR Inten    --      1.6858                 0.2001                 1.1321

                     19                     20                     21
                      A                      A                      A
 Frequencies --    971.3119              1020.4081              1037.5158
 Red. masses --      1.7256                 1.7804                 1.2665
 Frc consts  --      0.9592                 1.0922                 0.8032
 IR Inten    --      0.0451                 0.6253                 0.0206

                     22                     23                     24
                      A                      A                      A
 Frequencies --   1083.3011              1102.8901              1110.9470
 Red. masses --      1.8001                 2.1750                 1.9260
 Frc consts  --      1.2447                 1.5587                 1.4006
 IR Inten    --      0.0595                 0.9526                 0.1427

                     25                     26                     27
                      A                      A                      A
 Frequencies --   1159.6625              1188.6402              1233.0045
 Red. masses --      2.1885                 2.0024                 1.4969
 Frc consts  --      1.7341                 1.6668                 1.3408
 IR Inten    --      0.7876                 1.4790                 0.0487

                     28                     29                     30
                      A                      A                      A
 Frequencies --   1265.7857              1302.3408              1306.8190
 Red. masses --      1.3454                 1.2669                 1.2086
 Frc consts  --      1.2700                 1.2660                 1.2161
 IR Inten    --      0.5513                 1.9646                 0.5386

                     31                     32                     33
                      A                      A                      A
 Frequencies --   1330.5413              1334.4268              1379.0450
 Red. masses --      1.1583                 1.0780                 1.3543
 Frc consts  --      1.2082                 1.1309                 1.5175
 IR Inten    --      2.2512                 0.5392                 0.4330

                     34                     35                     36
                      A                      A                      A
 Frequencies --   1379.4610              1382.7517              1408.5273
 Red. masses --      1.3878                 1.5248                 1.5703
 Frc consts  --      1.5559                 1.7177                 1.8356
 IR Inten    --      3.3207                 0.0009                 1.6449

                     37                     38                     39
                      A                      A                      A
 Frequencies --   1417.2387              1417.5546              1482.8256
 Red. masses --      1.3641                 1.2915                 1.0727
 Frc consts  --      1.6143                 1.5291                 1.3897
 IR Inten    --     10.0153                 4.3791                 0.0164

                     40                     41                     42
                      A                      A                      A
 Frequencies --   1486.8374              1494.2981              1494.6722
 Red. masses --      1.0830                 1.0606                 1.0648
 Frc consts  --      1.4106                 1.3954                 1.4016
 IR Inten    --      2.1241                 0.2114                 2.7599

                     43                     44                     45
                      A                      A                      A
 Frequencies --   1504.7971              1505.6665              1508.2896
 Red. masses --      1.0569                 1.0570                 1.0983
 Frc consts  --      1.4100                 1.4119                 1.4721
 IR Inten    --      4.9649                 2.2159                 7.5560

                     46                     47                     48
                      A                      A                      A
 Frequencies --   1513.7253              1513.7341              3033.9930
 Red. masses --      1.0618                 1.0614                 1.0593
 Frc consts  --      1.4335                 1.4329                 5.7454
 IR Inten    --      6.9863                 7.5312                 6.5672

                     49                     50                     51
                      A                      A                      A
 Frequencies --   3035.2453              3045.2971              3048.6876
 Red. masses --      1.0618                 1.0637                 1.0652
 Frc consts  --      5.7637                 5.8118                 5.8330
 IR Inten    --      0.5741                39.4412                29.1892

                     52                     53                     54
                      A                      A                      A
 Frequencies --   3050.0698              3058.7348              3059.2119
 Red. masses --      1.0623                 1.0407                 1.0379
 Frc consts  --      5.8225                 5.7366                 5.7229
 IR Inten    --     16.1299                39.8027                13.5653

                     55                     56                     57
                      A                      A                      A
 Frequencies --   3064.5395              3076.2356              3086.1302
 Red. masses --      1.0929                 1.0974                 1.0997
 Frc consts  --      6.0473                 6.1186                 6.1709
 IR Inten    --      4.4993                13.1963                21.8505

                     58                     59                     60
                      A                      A                      A
 Frequencies --   3089.0176              3097.5023              3126.5322
 Red. masses --      1.1013                 1.1045                 1.1007
 Frc consts  --      6.1916                 6.2437                 6.3391
 IR Inten    --     14.5553                96.5508                21.4792

                     61                     62                     63
                      A                      A                      A
 Frequencies --   3126.5857              3136.6316              3136.6522
 Red. masses --      1.1006                 1.1018                 1.1019
 Frc consts  --      6.3388                 6.3867                 6.3872
 IR Inten    --     46.1657                 4.5874                68.1552

 - Thermochemistry -
 -------------------
 Temperature   298.150 Kelvin.  Pressure   1.00000 Atm.
 Atom     1 has atomic number  6 and mass  12.00000

 Molecular mass:   100.12520 amu.
 Principal axes and moments of inertia in atomic units:
                           1         2         3
     Eigenvalues --   327.167281852.838521959.54531
           X            0.99999   0.00000   0.00436
           Y           -0.00000   1.00000  -0.00000
           Z           -0.00436   0.00000   0.99999
 This molecule is an asymmetric top.
 Rotational symmetry number  1.
 Rotational temperatures (Kelvin)      0.26474     0.04675     0.04420
 Rotational constants (GHZ):           5.51626     0.97404     0.92100
 Zero-point vibrational energy     574954.7 (Joules/Mol)
                                  137.41748 (Kcal/Mol)
 Warning -- explicit consideration of  11 degrees of freedom as
           vibrations may cause significant error
 Vibrational temperatures:     69.75   131.94   169.13   184.10   242.91
          (Kelvin)            365.07   415.72   441.69   460.96   662.36
                              677.03  1058.04  1081.30  1136.78  1213.94
                             1263.10  1306.21  1373.82  1397.50  1468.14
                             1492.75  1558.63  1586.81  1598.41  1668.50
                             1710.19  1774.02  1821.18  1873.78  1880.22
                             1914.35  1919.94  1984.14  1984.74  1989.47
                             2026.56  2039.09  2039.54  2133.46  2139.23
                             2149.96  2150.50  2165.07  2166.32  2170.09
                             2177.91  2177.93  4365.24  4367.04  4381.50
                             4386.38  4388.37  4400.84  4401.52  4409.19
                             4426.02  4440.25  4444.41  4456.61  4498.38
                             4498.46  4512.91  4512.94

 Zero-point correction=                           0.218989 (Hartree/Particle)
 Thermal correction to Energy=                    0.228503
 Thermal correction to Enthalpy=                  0.229447
 Thermal correction to Gibbs Free Energy=         0.184324
 Sum of electronic and zero-point Energies=           -276.120513
 Sum of electronic and thermal Energies=              -276.110999
 Sum of electronic and thermal Enthalpies=            -276.110055
 Sum of electronic and thermal Free Energies=         -276.155178

                     E (Thermal)             CV                S
                      KCal/Mol        Cal/Mol-Kelvin    Cal/Mol-Kelvin
 Total                  143.388             33.846             94.969
 Electronic               0.000              0.000              0.000
 Translational            0.889              2.981             39.722
 Rotational               0.889              2.981             28.565
 Vibrational            141.610             27.884             26.683
 Vibration     1          0.595              1.978              4.879
 Vibration     2          0.602              1.955              3.623
 Vibration     3          0.608              1.935              3.140
 Vibration     4          0.611              1.925              2.977
 Vibration     5          0.625              1.881              2.448
 Vibration     6          0.665              1.756              1.704
 Vibration     7          0.686              1.694              1.480
 Vibration     8          0.697              1.660              1.379
 Vibration     9          0.706              1.635              1.308
 Vibration    10          0.818              1.338              0.765
 Vibration    11          0.828              1.315              0.736

 Optimization completed.
    -- Stationary point found.
 Normal termination of Gaussian 16 at Sun Sep 29 05:56:51 2019.
