 Gaussian 16, Revision A.03,
 Gaussian 16:  EM64L-G16RevA.03 25-Dec-2016

 ----------------------------------------------------------------------
 #p m062x/cc-pVTZ opt=(calcfc,maxcycles=900,Tight) freq IOP(7/33=1,2/16
 =3) scf=(maxcycle=900)
 ----------------------------------------------------------------------

 ------------------------------
 Gaussian input prepared by ASE
 ------------------------------
 Symbolic Z-matrix:
 Charge =  0 Multiplicity = 1

 SCF Done:  E(RM062X) =  -276.310241035     A.U. after   11 cycles
 SCF Done:  E(RM062X) =  -276.325350086     A.U. after   11 cycles
 SCF Done:  E(RM062X) =  -276.318762185     A.U. after   11 cycles
 SCF Done:  E(RM062X) =  -276.330190632     A.U. after   10 cycles
 SCF Done:  E(RM062X) =  -276.308413619     A.U. after   11 cycles
 SCF Done:  E(RM062X) =  -276.331548126     A.U. after    9 cycles
 SCF Done:  E(RM062X) =  -276.332398741     A.U. after    9 cycles
 SCF Done:  E(RM062X) =  -276.332653053     A.U. after    9 cycles
 SCF Done:  E(RM062X) =  -276.332739882     A.U. after    8 cycles
 SCF Done:  E(RM062X) =  -276.332811236     A.U. after    8 cycles
 SCF Done:  E(RM062X) =  -276.333121461     A.U. after    8 cycles
 SCF Done:  E(RM062X) =  -276.333146046     A.U. after    8 cycles
 SCF Done:  E(RM062X) =  -276.333171668     A.U. after    9 cycles
 SCF Done:  E(RM062X) =  -276.333174479     A.U. after    8 cycles
 SCF Done:  E(RM062X) =  -276.333173979     A.U. after    8 cycles
 SCF Done:  E(RM062X) =  -276.333176592     A.U. after    8 cycles
 SCF Done:  E(RM062X) =  -276.333176647     A.U. after    5 cycles
 SCF Done:  E(RM062X) =  -276.333176651     A.U. after    4 cycles
 SCF Done:  E(RM062X) =  -276.333176651     A.U. after    3 cycles
 Optimization completed.
    -- Stationary point found.
 Normal termination of Gaussian 16 at Sun Sep 29 16:21:18 2019.

 ----------------------------------------------------------------------
 #P Geom=AllCheck Guess=TCheck SCRF=Check Test GenChk RM062X/CC-pVTZ Fr
 eq
 ----------------------------------------------------------------------

 Structure from the checkpoint file:  "/scratch/harms.n/gauss_scrdir/Gau-2314.chk"
 ------------------------------
 Gaussian input prepared by ASE
 ------------------------------
 Charge =  0 Multiplicity = 1

                         Standard orientation:
 ---------------------------------------------------------------------
 Center     Atomic      Atomic             Coordinates (Angstroms)
 Number     Number       Type             X           Y           Z
 ---------------------------------------------------------------------
      1          6           0        0.859137    0.439520    0.921664
      2          6           0        0.077088    1.385370   -0.000637
      3          6           0       -1.426582    1.119866   -0.111430
      4          6           0        1.483803   -0.764044    0.209208
      5          6           0       -1.844466   -0.233243   -0.701038
      6          6           0        2.719574   -0.385829   -0.600794
      7          6           0       -1.956252   -1.363461    0.319492
      8          1           0        0.749392   -1.231164   -0.449449
      9          1           0        1.759994   -1.519496    0.948008
     10          1           0        0.201403    0.103629    1.726621
     11          1           0        1.667670    0.992220    1.406946
     12          1           0        0.513194    1.358743   -1.003715
     13          1           0        0.201601    2.411465    0.350295
     14          1           0       -1.851314    1.914402   -0.728486
     15          1           0       -1.881752    1.229327    0.878261
     16          1           0       -2.818871   -0.117903   -1.179534
     17          1           0       -1.151290   -0.511818   -1.499487
     18          1           0        2.488549    0.370040   -1.352196
     19          1           0        3.495102    0.022087    0.049224
     20          1           0        3.135793   -1.249368   -1.118752
     21          1           0       -2.683382   -1.104081    1.090659
     22          1           0       -1.010227   -1.570049    0.816784
     23          1           0       -2.289679   -2.287102   -0.153972
 ---------------------------------------------------------------------

 SCF Done:  E(RM062X) =  -276.333176651     A.U. after    1 cycles

 The electronic state is 1-A.
 Alpha  occ. eigenvalues --  -10.52695 -10.52651 -10.52509 -10.52473 -10.52437
 Alpha  occ. eigenvalues --  -10.51940 -10.51861  -0.91151  -0.87274  -0.82392
 Alpha  occ. eigenvalues --   -0.76770  -0.70991  -0.66340  -0.63655  -0.54509
 Alpha  occ. eigenvalues --   -0.52455  -0.51333  -0.49616  -0.47728  -0.46558
 Alpha  occ. eigenvalues --   -0.44854  -0.42826  -0.42385  -0.40058  -0.39657
 Alpha  occ. eigenvalues --   -0.38709  -0.37323  -0.36006  -0.35893
 Alpha virt. eigenvalues --    0.06796   0.08439   0.08740   0.09031   0.12001
 Alpha virt. eigenvalues --    0.12574   0.12983   0.13151   0.14033   0.14801
 Alpha virt. eigenvalues --    0.15493   0.16704   0.18123   0.18801   0.19775

 Mulliken charges:
               1
     1  C   -0.308398
     2  C   -0.272589
     3  C   -0.250500
     4  C   -0.277667
     5  C   -0.271782
     6  C   -0.358480
     7  C   -0.383432
     8  H    0.145819
     9  H    0.140996
    10  H    0.157711
    11  H    0.144678
    12  H    0.141977
    13  H    0.135720
    14  H    0.132123
    15  H    0.131418
    16  H    0.134685
    17  H    0.138184
    18  H    0.115382
    19  H    0.112568
    20  H    0.115580
    21  H    0.120203
    22  H    0.133137
    23  H    0.122665
 Sum of Mulliken charges =  -0.00000

 Dipole moment (field-independent basis, Debye):
    X=             -0.0472    Y=              0.0454    Z=             -0.0245  Tot=              0.0699
 Quadrupole moment (field-independent basis, Debye-Ang):
   XX=            -48.8880   YY=            -48.9380   ZZ=            -48.7743
   XY=             -0.2401   XZ=              0.3942   YZ=              0.2006

  Exact polarizability:  92.684   0.032  83.570  -0.554  -0.216  76.653
 Approx polarizability:  98.077  -0.005  97.140  -0.380   0.162  97.211

                      1                      2                      3
                      A                      A                      A
 Frequencies --     57.9540               117.0123               135.8716
 Red. masses --      1.9717                 2.0420                 2.2048
 Frc consts  --      0.0039                 0.0165                 0.0240
 IR Inten    --      0.0009                 0.0305                 0.0177

                      4                      5                      6
                      A                      A                      A
 Frequencies --    172.9167               228.0285               238.6596
 Red. masses --      1.8220                 1.3227                 1.3182
 Frc consts  --      0.0321                 0.0405                 0.0442
 IR Inten    --      0.0215                 0.0452                 0.0912

                      7                      8                      9
                      A                      A                      A
 Frequencies --    273.1351               316.3090               363.4251
 Red. masses --      2.3031                 1.8990                 1.8895
 Frc consts  --      0.1012                 0.1119                 0.1470
 IR Inten    --      0.1048                 0.0994                 0.1855

                     10                     11                     12
                      A                      A                      A
 Frequencies --    429.0468               466.7903               740.9461
 Red. masses --      1.8250                 1.5410                 1.6275
 Frc consts  --      0.1979                 0.1978                 0.5264
 IR Inten    --      0.1810                 0.1902                 0.1337

                     13                     14                     15
                      A                      A                      A
 Frequencies --    777.7484               794.8558               833.2667
 Red. masses --      1.2284                 1.5419                 1.5022
 Frc consts  --      0.4378                 0.5740                 0.6145
 IR Inten    --      8.1148                 0.3691                 0.7089

                     16                     17                     18
                      A                      A                      A
 Frequencies --    868.9953               886.9045               948.0397
 Red. masses --      2.1557                 1.6321                 1.4585
 Frc consts  --      0.9591                 0.7564                 0.7723
 IR Inten    --      3.2982                 1.0782                 3.8316

                     19                     20                     21
                      A                      A                      A
 Frequencies --    967.2179              1015.9079              1058.4544
 Red. masses --      1.6470                 1.8604                 1.5023
 Frc consts  --      0.9078                 1.1313                 0.9916
 IR Inten    --      0.9313                 0.3308                 0.5954

                     22                     23                     24
                      A                      A                      A
 Frequencies --   1077.9776              1091.5088              1137.4918
 Red. masses --      1.5955                 1.7661                 1.8422
 Frc consts  --      1.0924                 1.2397                 1.4044
 IR Inten    --      0.0959                 0.9142                 0.2459

                     25                     26                     27
                      A                      A                      A
 Frequencies --   1148.5896              1162.9282              1229.6508
 Red. masses --      1.9721                 1.9802                 1.3638
 Frc consts  --      1.5329                 1.5778                 1.2150
 IR Inten    --      1.0136                 0.7989                 0.4475

                     28                     29                     30
                      A                      A                      A
 Frequencies --   1264.7825              1296.4523              1306.9448
 Red. masses --      1.2731                 1.1958                 1.1826
 Frc consts  --      1.1999                 1.1842                 1.1901
 IR Inten    --      0.1951                 0.4205                 0.0602

                     31                     32                     33
                      A                      A                      A
 Frequencies --   1326.3578              1360.5324              1377.3182
 Red. masses --      1.1326                 1.3165                 1.3439
 Frc consts  --      1.1739                 1.4358                 1.5020
 IR Inten    --      0.9920                 2.3913                 1.0491

                     34                     35                     36
                      A                      A                      A
 Frequencies --   1385.4896              1390.7034              1399.3730
 Red. masses --      1.4326                 1.5342                 1.4645
 Frc consts  --      1.6202                 1.7483                 1.6896
 IR Inten    --      0.7232                 0.4469                 0.2533

                     37                     38                     39
                      A                      A                      A
 Frequencies --   1415.5325              1417.4271              1486.1458
 Red. masses --      1.2764                 1.2562                 1.0775
 Frc consts  --      1.5069                 1.4870                 1.4022
 IR Inten    --      3.0042                 8.4943                 2.4469

                     40                     41                     42
                      A                      A                      A
 Frequencies --   1488.0536              1490.5883              1496.8438
 Red. masses --      1.0687                 1.0808                 1.0775
 Frc consts  --      1.3943                 1.4149                 1.4224
 IR Inten    --      1.2822                 1.4782                 4.9565

                     43                     44                     45
                      A                      A                      A
 Frequencies --   1501.5166              1505.0786              1509.1359
 Red. masses --      1.0568                 1.0412                 1.0648
 Frc consts  --      1.4039                 1.3897                 1.4288
 IR Inten    --      1.9095                 4.2771                 3.9615

                     46                     47                     48
                      A                      A                      A
 Frequencies --   1511.3517              1519.1545              3037.3255
 Red. masses --      1.0721                 1.0668                 1.0664
 Frc consts  --      1.4429                 1.4505                 5.7963
 IR Inten    --     17.8698                 2.8032                15.7001

                     49                     50                     51
                      A                      A                      A
 Frequencies --   3046.1231              3049.0179              3051.2693
 Red. masses --      1.0629                 1.0630                 1.0621
 Frc consts  --      5.8111                 5.8223                 5.8263
 IR Inten    --     14.7227                17.8832                 9.4442

                     52                     53                     54
                      A                      A                      A
 Frequencies --   3060.1196              3061.6233              3064.1778
 Red. masses --      1.0390                 1.0627                 1.0404
 Frc consts  --      5.7325                 5.8689                 5.7554
 IR Inten    --     25.8702                23.2271                16.0465

                     55                     56                     57
                      A                      A                      A
 Frequencies --   3081.7446              3087.0813              3089.2754
 Red. masses --      1.0996                 1.0986                 1.0955
 Frc consts  --      6.1529                 6.1685                 6.1602
 IR Inten    --      7.1439                64.7901                48.2551

                     58                     59                     60
                      A                      A                      A
 Frequencies --   3091.2469              3100.0707              3125.4141
 Red. masses --      1.1001                 1.0988                 1.1015
 Frc consts  --      6.1937                 6.2218                 6.3394
 IR Inten    --     46.4297                17.3898                27.9682

                     61                     62                     63
                      A                      A                      A
 Frequencies --   3129.1418              3133.1512              3152.4570
 Red. masses --      1.1023                 1.1013                 1.0984
 Frc consts  --      6.3591                 6.3699                 6.4313
 IR Inten    --     51.9199                29.6583                21.5400

 - Thermochemistry -
 -------------------
 Temperature   298.150 Kelvin.  Pressure   1.00000 Atm.
 Atom     1 has atomic number  6 and mass  12.00000

 Molecular mass:   100.12520 amu.
 Principal axes and moments of inertia in atomic units:
                           1         2         3
     Eigenvalues --   501.517881214.374291433.52401
           X            0.99996   0.00583  -0.00678
           Y           -0.00588   0.99995  -0.00778
           Z            0.00673   0.00782   0.99995
 This molecule is an asymmetric top.
 Rotational symmetry number  1.
 Warning -- assumption of classical behavior for rotation
           may cause significant error
 Rotational temperatures (Kelvin)      0.17270     0.07132     0.06042
 Rotational constants (GHZ):           3.59856     1.48615     1.25895
 Zero-point vibrational energy     576286.9 (Joules/Mol)
                                  137.73589 (Kcal/Mol)
 Warning -- explicit consideration of  11 degrees of freedom as
           vibrations may cause significant error
 Vibrational temperatures:     83.38   168.35   195.49   248.79   328.08
          (Kelvin)            343.38   392.98   455.10   522.89   617.30
                              671.61  1066.06  1119.01  1143.62  1198.88
                             1250.29  1276.06  1364.02  1391.61  1461.66
                             1522.88  1550.97  1570.44  1636.60  1652.56
                             1673.19  1769.19  1819.74  1865.31  1880.40
                             1908.33  1957.50  1981.65  1993.41  2000.91
                             2013.39  2036.64  2039.36  2138.23  2140.98
                             2144.62  2153.62  2160.35  2165.47  2171.31
                             2174.50  2185.72  4370.03  4382.69  4386.86
                             4390.10  4402.83  4404.99  4408.67  4433.94
                             4441.62  4444.78  4447.61  4460.31  4496.77
                             4502.14  4507.91  4535.68

 Zero-point correction=                           0.219496 (Hartree/Particle)
 Thermal correction to Energy=                    0.228749
 Thermal correction to Enthalpy=                  0.229693
 Thermal correction to Gibbs Free Energy=         0.185750
 Sum of electronic and zero-point Energies=           -276.113681
 Sum of electronic and thermal Energies=              -276.104428
 Sum of electronic and thermal Enthalpies=            -276.103484
 Sum of electronic and thermal Free Energies=         -276.147427

                     E (Thermal)             CV                S
                      KCal/Mol        Cal/Mol-Kelvin    Cal/Mol-Kelvin
 Total                  143.542             33.704             92.486
 Electronic               0.000              0.000              0.000
 Translational            0.889              2.981             39.722
 Rotational               0.889              2.981             28.259
 Vibrational            141.765             27.742             24.506
 Vibration     1          0.596              1.974              4.526
 Vibration     2          0.608              1.935              3.149
 Vibration     3          0.614              1.918              2.861
 Vibration     4          0.626              1.876              2.404
 Vibration     5          0.651              1.798              1.894
 Vibration     6          0.657              1.781              1.813
 Vibration     7          0.676              1.723              1.576
 Vibration     8          0.703              1.642              1.329
 Vibration     9          0.737              1.548              1.107
 Vibration    10          0.790              1.407              0.862
 Vibration    11          0.824              1.324              0.747

 Optimization completed.
    -- Stationary point found.
 Normal termination of Gaussian 16 at Sun Sep 29 19:16:00 2019.
