 Gaussian 16, Revision A.03,
 Gaussian 16:  EM64L-G16RevA.03 25-Dec-2016

 ----------------------------------------------------------------------
 #p m062x/cc-pVTZ opt=(calcfc,maxcycles=900,Tight) freq IOP(7/33=1,2/16
 =3) scf=(maxcycle=900)
 ----------------------------------------------------------------------

 ------------------------------
 Gaussian input prepared by ASE
 ------------------------------
 Symbolic Z-matrix:
 Charge =  0 Multiplicity = 1

 SCF Done:  E(RM062X) =  -276.310617248     A.U. after   11 cycles
 SCF Done:  E(RM062X) =  -276.325001854     A.U. after   10 cycles
 SCF Done:  E(RM062X) =  -276.321760840     A.U. after   11 cycles
 SCF Done:  E(RM062X) =  -276.329585388     A.U. after   10 cycles
 SCF Done:  E(RM062X) =  -276.332263000     A.U. after   10 cycles
 SCF Done:  E(RM062X) =  -276.333461296     A.U. after   10 cycles
 SCF Done:  E(RM062X) =  -276.334949817     A.U. after    9 cycles
 SCF Done:  E(RM062X) =  -276.336269227     A.U. after   10 cycles
 SCF Done:  E(RM062X) =  -276.336771228     A.U. after    9 cycles
 SCF Done:  E(RM062X) =  -276.337057298     A.U. after    9 cycles
 SCF Done:  E(RM062X) =  -276.337166595     A.U. after    8 cycles
 SCF Done:  E(RM062X) =  -276.337175184     A.U. after    7 cycles
 SCF Done:  E(RM062X) =  -276.337176266     A.U. after    6 cycles
 SCF Done:  E(RM062X) =  -276.337176554     A.U. after    5 cycles
 SCF Done:  E(RM062X) =  -276.337176616     A.U. after    5 cycles
 SCF Done:  E(RM062X) =  -276.337176629     A.U. after    5 cycles
 SCF Done:  E(RM062X) =  -276.337176630     A.U. after    4 cycles
 SCF Done:  E(RM062X) =  -276.337176630     A.U. after    3 cycles
 SCF Done:  E(RM062X) =  -276.337176630     A.U. after    3 cycles
 Optimization completed.
    -- Stationary point found.
 Normal termination of Gaussian 16 at Sun Sep 29 05:29:22 2019.

 ----------------------------------------------------------------------
 #P Geom=AllCheck Guess=TCheck SCRF=Check Test GenChk RM062X/CC-pVTZ Fr
 eq
 ----------------------------------------------------------------------

 Structure from the checkpoint file:  "/scratch/harms.n/gauss_scrdir/Gau-20511.chk"
 ------------------------------
 Gaussian input prepared by ASE
 ------------------------------
 Charge =  0 Multiplicity = 1

                         Standard orientation:
 ---------------------------------------------------------------------
 Center     Atomic      Atomic             Coordinates (Angstroms)
 Number     Number       Type             X           Y           Z
 ---------------------------------------------------------------------
      1          6           0       -1.599539    1.006357   -0.332837
      2          6           0       -0.133244    1.253198    0.020587
      3          6           0        0.779448    0.041658   -0.127867
      4          6           0       -2.279948   -0.089959    0.500081
      5          6           0        2.244875    0.374027    0.127084
      6          6           0       -2.269729   -1.463963   -0.164880
      7          6           0        3.153177   -0.842043   -0.000607
      8          1           0       -3.316998    0.190013    0.691395
      9          1           0       -1.797816   -0.148249    1.480206
     10          1           0       -1.677396    0.749776   -1.393983
     11          1           0       -2.138608    1.946900   -0.207399
     12          1           0       -0.073781    1.613140    1.052717
     13          1           0        0.251391    2.061996   -0.607045
     14          1           0        0.672573   -0.377143   -1.134260
     15          1           0        0.469886   -0.743887    0.567526
     16          1           0        2.563705    1.148875   -0.574871
     17          1           0        2.344545    0.806421    1.126260
     18          1           0       -2.818023   -1.432294   -1.107573
     19          1           0       -1.257257   -1.798889   -0.386820
     20          1           0       -2.740476   -2.215463    0.469037
     21          1           0        3.084537   -1.273500   -1.000360
     22          1           0        2.867003   -1.616189    0.712920
     23          1           0        4.196473   -0.587157    0.182877
 ---------------------------------------------------------------------

 SCF Done:  E(RM062X) =  -276.337176630     A.U. after    1 cycles

 The electronic state is 1-A.
 Alpha  occ. eigenvalues --  -10.52642 -10.52640 -10.52507 -10.52455 -10.52440
 Alpha  occ. eigenvalues --  -10.51959 -10.51831  -0.91213  -0.87601  -0.82452
 Alpha  occ. eigenvalues --   -0.76680  -0.70122  -0.66408  -0.64379  -0.54794
 Alpha  occ. eigenvalues --   -0.52618  -0.51349  -0.48964  -0.48011  -0.45649
 Alpha  occ. eigenvalues --   -0.45211  -0.43818  -0.41084  -0.40131  -0.39787
 Alpha  occ. eigenvalues --   -0.38685  -0.37596  -0.36648  -0.35873
 Alpha virt. eigenvalues --    0.06900   0.08108   0.08751   0.09125   0.11294
 Alpha virt. eigenvalues --    0.12288   0.12894   0.13846   0.14622   0.15040
 Alpha virt. eigenvalues --    0.15575   0.16101   0.17328   0.17695   0.19974

 Mulliken charges:
               1
     1  C   -0.262125
     2  C   -0.257578
     3  C   -0.277065
     4  C   -0.259633
     5  C   -0.239674
     6  C   -0.360775
     7  C   -0.352889
     8  H    0.128326
     9  H    0.133356
    10  H    0.132051
    11  H    0.132759
    12  H    0.136049
    13  H    0.133122
    14  H    0.140336
    15  H    0.139118
    16  H    0.122530
    17  H    0.121554
    18  H    0.113186
    19  H    0.129088
    20  H    0.115212
    21  H    0.109656
    22  H    0.109212
    23  H    0.114184
 Sum of Mulliken charges =  -0.00000

 Dipole moment (field-independent basis, Debye):
    X=             -0.0242    Y=              0.1204    Z=              0.0386  Tot=              0.1288
 Quadrupole moment (field-independent basis, Debye-Ang):
   XX=            -48.9300   YY=            -49.4829   ZZ=            -48.3466
   XY=              0.0353   XZ=             -0.1122   YZ=             -0.2857

  Exact polarizability:  96.901  -0.204  84.299   0.108   0.429  74.700
 Approx polarizability:  97.712   0.403  97.437   0.106   0.177  97.061

                      1                      2                      3
                      A                      A                      A
 Frequencies --     79.2098                84.9919               109.3330
 Red. masses --      1.7437                 1.9229                 2.5818
 Frc consts  --      0.0064                 0.0082                 0.0182
 IR Inten    --      0.0045                 0.0011                 0.0116

                      4                      5                      6
                      A                      A                      A
 Frequencies --    157.2012               184.3252               219.3262
 Red. masses --      1.8670                 2.1984                 1.1620
 Frc consts  --      0.0272                 0.0440                 0.0329
 IR Inten    --      0.0022                 0.0217                 0.0443

                      7                      8                      9
                      A                      A                      A
 Frequencies --    250.3076               303.1644               371.8091
 Red. masses --      1.1534                 2.3538                 2.1934
 Frc consts  --      0.0426                 0.1275                 0.1787
 IR Inten    --      0.0134                 0.0098                 0.2328

                     10                     11                     12
                      A                      A                      A
 Frequencies --    402.2203               476.3510               741.6389
 Red. masses --      2.5440                 1.9947                 1.0816
 Frc consts  --      0.2425                 0.2667                 0.3505
 IR Inten    --      0.0125                 0.1205                 3.0721

                     13                     14                     15
                      A                      A                      A
 Frequencies --    758.5737               790.2805               834.4505
 Red. masses --      1.2199                 1.3131                 1.7960
 Frc consts  --      0.4136                 0.4832                 0.7368
 IR Inten    --      3.5130                 0.7125                 1.5239

                     16                     17                     18
                      A                      A                      A
 Frequencies --    871.2465               926.5989               953.3981
 Red. masses --      1.5048                 1.6159                 1.2429
 Frc consts  --      0.6730                 0.8174                 0.6657
 IR Inten    --      0.3773                 1.6742                 1.8543

                     19                     20                     21
                      A                      A                      A
 Frequencies --    980.6238              1043.8796              1049.9225
 Red. masses --      2.7341                 1.5080                 1.5017
 Frc consts  --      1.5491                 0.9682                 0.9753
 IR Inten    --      0.1121                 1.9537                 0.1584

                     22                     23                     24
                      A                      A                      A
 Frequencies --   1073.4889              1091.8514              1123.0469
 Red. masses --      1.8671                 2.1825                 1.8753
 Frc consts  --      1.2677                 1.5330                 1.3935
 IR Inten    --      0.9692                 1.0707                 0.1940

                     25                     26                     27
                      A                      A                      A
 Frequencies --   1156.8594              1188.9270              1240.7173
 Red. masses --      2.3284                 1.9588                 1.4145
 Frc consts  --      1.8360                 1.6314                 1.2829
 IR Inten    --      1.0487                 0.1719                 0.5766

                     28                     29                     30
                      A                      A                      A
 Frequencies --   1263.7110              1292.6016              1311.7377
 Red. masses --      1.3335                 1.2395                 1.2158
 Frc consts  --      1.2547                 1.2202                 1.2326
 IR Inten    --      0.5355                 0.4023                 0.1561

                     31                     32                     33
                      A                      A                      A
 Frequencies --   1327.9626              1333.7279              1367.4244
 Red. masses --      1.1674                 1.0582                 1.3215
 Frc consts  --      1.2130                 1.1091                 1.4559
 IR Inten    --      1.6032                 0.2075                 2.0348

                     34                     35                     36
                      A                      A                      A
 Frequencies --   1379.8379              1389.6946              1410.8880
 Red. masses --      1.4349                 1.5381                 1.5791
 Frc consts  --      1.6096                 1.7501                 1.8520
 IR Inten    --      0.5208                 0.2690                 3.2688

                     37                     38                     39
                      A                      A                      A
 Frequencies --   1414.6533              1415.1764              1485.2707
 Red. masses --      1.2754                 1.3153                 1.0785
 Frc consts  --      1.5039                 1.5520                 1.4018
 IR Inten    --      5.6604                 2.5705                 1.7144

                     40                     41                     42
                      A                      A                      A
 Frequencies --   1490.1500              1494.3686              1499.5078
 Red. masses --      1.0686                 1.0661                 1.0622
 Frc consts  --      1.3981                 1.4027                 1.4072
 IR Inten    --      0.9489                 0.3809                 3.4510

                     43                     44                     45
                      A                      A                      A
 Frequencies --   1502.9460              1503.2726              1505.5989
 Red. masses --      1.0740                 1.0394                 1.0539
 Frc consts  --      1.4294                 1.3840                 1.4076
 IR Inten    --      3.6189                 9.2641                 1.2768

                     46                     47                     48
                      A                      A                      A
 Frequencies --   1512.2870              1515.3036              3029.5862
 Red. masses --      1.0766                 1.0862                 1.0610
 Frc consts  --      1.4507                 1.4695                 5.7379
 IR Inten    --      3.6142                 8.9878                 0.6935

                     49                     50                     51
                      A                      A                      A
 Frequencies --   3038.1773              3041.4337              3049.9387
 Red. masses --      1.0624                 1.0657                 1.0600
 Frc consts  --      5.7779                 5.8083                 5.8097
 IR Inten    --     17.9353                12.7753                45.2598

                     52                     53                     54
                      A                      A                      A
 Frequencies --   3050.3526              3057.7652              3061.6041
 Red. masses --      1.0635                 1.0368                 1.0725
 Frc consts  --      5.8303                 5.7116                 5.9229
 IR Inten    --     24.1884                33.9463                 6.5878

                     55                     56                     57
                      A                      A                      A
 Frequencies --   3063.3826              3075.6522              3085.7703
 Red. masses --      1.0589                 1.1011                 1.1024
 Frc consts  --      5.8546                 6.1371                 6.1848
 IR Inten    --     23.2214                10.2295                21.3527

                     58                     59                     60
                      A                      A                      A
 Frequencies --   3093.7752              3095.9435              3124.6194
 Red. masses --      1.1008                 1.0992                 1.1027
 Frc consts  --      6.2076                 6.2077                 6.3433
 IR Inten    --     43.1257                54.3274                41.2857

                     61                     62                     63
                      A                      A                      A
 Frequencies --   3126.9675              3133.3562              3142.9673
 Red. masses --      1.1018                 1.1015                 1.1008
 Frc consts  --      6.3474                 6.3719                 6.4066
 IR Inten    --     38.3508                32.5946                31.1176

 - Thermochemistry -
 -------------------
 Temperature   298.150 Kelvin.  Pressure   1.00000 Atm.
 Atom     1 has atomic number  6 and mass  12.00000

 Molecular mass:   100.12520 amu.
 Principal axes and moments of inertia in atomic units:
                           1         2         3
     Eigenvalues --   405.499851597.330591876.95085
           X            1.00000   0.00053   0.00076
           Y           -0.00053   0.99999   0.00535
           Z           -0.00076  -0.00535   0.99999
 This molecule is an asymmetric top.
 Rotational symmetry number  1.
 Rotational temperatures (Kelvin)      0.21360     0.05422     0.04615
 Rotational constants (GHZ):           4.45066     1.12985     0.96153
 Zero-point vibrational energy     575111.6 (Joules/Mol)
                                  137.45498 (Kcal/Mol)
 Warning -- explicit consideration of  11 degrees of freedom as
           vibrations may cause significant error
 Vibrational temperatures:    113.97   122.28   157.31   226.18   265.20
          (Kelvin)            315.56   360.14   436.19   534.95   578.71
                              685.36  1067.05  1091.42  1137.04  1200.59
                             1253.53  1333.17  1371.73  1410.90  1501.91
                             1510.60  1544.51  1570.93  1615.81  1664.46
                             1710.60  1785.12  1818.20  1859.77  1887.30
                             1910.64  1918.94  1967.42  1985.28  1999.46
                             2029.95  2035.37  2036.12  2136.97  2143.99
                             2150.06  2157.46  2162.40  2162.87  2166.22
                             2175.84  2180.18  4358.90  4371.26  4375.94
                             4388.18  4388.78  4399.44  4404.97  4407.52
                             4425.18  4439.74  4451.25  4454.37  4495.63
                             4499.01  4508.20  4522.03

 Zero-point correction=                           0.219048 (Hartree/Particle)
 Thermal correction to Energy=                    0.228539
 Thermal correction to Enthalpy=                  0.229483
 Thermal correction to Gibbs Free Energy=         0.184727
 Sum of electronic and zero-point Energies=           -276.118128
 Sum of electronic and thermal Energies=              -276.108638
 Sum of electronic and thermal Enthalpies=            -276.107693
 Sum of electronic and thermal Free Energies=         -276.152450

                     E (Thermal)             CV                S
                      KCal/Mol        Cal/Mol-Kelvin    Cal/Mol-Kelvin
 Total                  143.410             33.875             94.198
 Electronic               0.000              0.000              0.000
 Translational            0.889              2.981             39.722
 Rotational               0.889              2.981             28.588
 Vibrational            141.633             27.913             25.889
 Vibration     1          0.600              1.963              3.910
 Vibration     2          0.601              1.960              3.772
 Vibration     3          0.606              1.942              3.281
 Vibration     4          0.621              1.895              2.583
 Vibration     5          0.631              1.861              2.284
 Vibration     6          0.647              1.812              1.965
 Vibration     7          0.663              1.762              1.728
 Vibration     8          0.695              1.668              1.399
 Vibration     9          0.744              1.530              1.072
 Vibration    10          0.768              1.465              0.955
 Vibration    11          0.833              1.303              0.720

 Optimization completed.
    -- Stationary point found.
 Normal termination of Gaussian 16 at Sun Sep 29 08:37:44 2019.
