 Gaussian 16, Revision A.03,
 Gaussian 16:  EM64L-G16RevA.03 25-Dec-2016

 ----------------------------------------------------------------------
 #p m062x/cc-pVTZ opt=(calcfc,maxcycles=900,Tight) freq IOP(7/33=1,2/16
 =3) scf=(maxcycle=900)
 ----------------------------------------------------------------------

 ------------------------------
 Gaussian input prepared by ASE
 ------------------------------
 Symbolic Z-matrix:
 Charge =  0 Multiplicity = 1

 SCF Done:  E(RM062X) =  -276.322024778     A.U. after   11 cycles
 SCF Done:  E(RM062X) =  -276.334213664     A.U. after   10 cycles
 SCF Done:  E(RM062X) =  -276.337561347     A.U. after   11 cycles
 SCF Done:  E(RM062X) =  -276.337564402     A.U. after   10 cycles
 SCF Done:  E(RM062X) =  -276.312726807     A.U. after   11 cycles
 SCF Done:  E(RM062X) =  -276.338572751     A.U. after    9 cycles
 SCF Done:  E(RM062X) =  -276.339049205     A.U. after    9 cycles
 SCF Done:  E(RM062X) =  -276.339095538     A.U. after    9 cycles
 SCF Done:  E(RM062X) =  -276.339167186     A.U. after    8 cycles
 SCF Done:  E(RM062X) =  -276.339194294     A.U. after    8 cycles
 SCF Done:  E(RM062X) =  -276.339197290     A.U. after    7 cycles
 SCF Done:  E(RM062X) =  -276.339199051     A.U. after    7 cycles
 SCF Done:  E(RM062X) =  -276.339199560     A.U. after    6 cycles
 SCF Done:  E(RM062X) =  -276.339199685     A.U. after    6 cycles
 SCF Done:  E(RM062X) =  -276.339199765     A.U. after    6 cycles
 SCF Done:  E(RM062X) =  -276.339199766     A.U. after    4 cycles
 SCF Done:  E(RM062X) =  -276.339199766     A.U. after    3 cycles
 SCF Done:  E(RM062X) =  -276.339199766     A.U. after    3 cycles
 SCF Done:  E(RM062X) =  -276.339199766     A.U. after    3 cycles
 Optimization completed.
    -- Stationary point found.
 Normal termination of Gaussian 16 at Sun Sep 29 05:44:11 2019.

 ----------------------------------------------------------------------
 #P Geom=AllCheck Guess=TCheck SCRF=Check Test GenChk RM062X/CC-pVTZ Fr
 eq
 ----------------------------------------------------------------------

 Structure from the checkpoint file:  "/scratch/harms.n/gauss_scrdir/Gau-18123.chk"
 ------------------------------
 Gaussian input prepared by ASE
 ------------------------------
 Charge =  0 Multiplicity = 1

                         Standard orientation:
 ---------------------------------------------------------------------
 Center     Atomic      Atomic             Coordinates (Angstroms)
 Number     Number       Type             X           Y           Z
 ---------------------------------------------------------------------
      1          6           0        0.971052   -0.571284   -0.283479
      2          6           0        0.233178    0.587246    0.380713
      3          6           0       -1.205272    0.762365   -0.101562
      4          6           0        2.417642   -0.729153    0.182370
      5          6           0       -2.123143   -0.415390    0.210452
      6          6           0        3.311984    0.452794   -0.177027
      7          6           0       -3.571852   -0.130703   -0.165956
      8          1           0        2.832889   -1.637218   -0.259007
      9          1           0        2.429570   -0.880770    1.265195
     10          1           0        0.955265   -0.429021   -1.369562
     11          1           0        0.436989   -1.502610   -0.085829
     12          1           0        0.777078    1.516011    0.198304
     13          1           0        0.234872    0.435766    1.465469
     14          1           0       -1.205493    0.938966   -1.182096
     15          1           0       -1.627146    1.662199    0.354540
     16          1           0       -1.781030   -1.305177   -0.321045
     17          1           0       -2.056444   -0.647813    1.277220
     18          1           0        3.271082    0.655101   -1.249020
     19          1           0        3.010493    1.360959    0.343864
     20          1           0        4.350604    0.254232    0.085737
     21          1           0       -3.657291    0.094279   -1.230238
     22          1           0       -3.953999    0.730323    0.384339
     23          1           0       -4.218970   -0.980476    0.049059
 ---------------------------------------------------------------------

 SCF Done:  E(RM062X) =  -276.339199766     A.U. after    1 cycles

 The electronic state is 1-A.
 Alpha  occ. eigenvalues --  -10.52646 -10.52565 -10.52458 -10.52415 -10.52379
 Alpha  occ. eigenvalues --  -10.51931 -10.51893  -0.91220  -0.87713  -0.82388
 Alpha  occ. eigenvalues --   -0.76329  -0.70774  -0.66611  -0.63758  -0.53636
 Alpha  occ. eigenvalues --   -0.53088  -0.52123  -0.49071  -0.47621  -0.46759
 Alpha  occ. eigenvalues --   -0.44590  -0.43658  -0.40935  -0.40310  -0.39813
 Alpha  occ. eigenvalues --   -0.38474  -0.37565  -0.36646  -0.36048
 Alpha virt. eigenvalues --    0.07160   0.07892   0.09008   0.09254   0.10832
 Alpha virt. eigenvalues --    0.12319   0.13021   0.13766   0.14676   0.14931
 Alpha virt. eigenvalues --    0.15900   0.17026   0.17303   0.17735   0.19316

 Mulliken charges:
               1
     1  C   -0.275553
     2  C   -0.285180
     3  C   -0.259367
     4  C   -0.239986
     5  C   -0.240490
     6  C   -0.365330
     7  C   -0.353476
     8  H    0.126466
     9  H    0.124701
    10  H    0.137997
    11  H    0.144360
    12  H    0.145151
    13  H    0.137471
    14  H    0.133716
    15  H    0.131482
    16  H    0.129321
    17  H    0.126495
    18  H    0.114694
    19  H    0.117075
    20  H    0.117807
    21  H    0.109520
    22  H    0.109485
    23  H    0.113641
 Sum of Mulliken charges =  -0.00000

 Dipole moment (field-independent basis, Debye):
    X=              0.0389    Y=             -0.0789    Z=              0.0335  Tot=              0.0941
 Quadrupole moment (field-independent basis, Debye-Ang):
   XX=            -49.7311   YY=            -48.8322   ZZ=            -48.3761
   XY=             -0.1228   XZ=             -0.2588   YZ=              0.1720

  Exact polarizability: 103.604   0.383  78.303   0.676  -0.464  75.010
 Approx polarizability:  98.494  -0.139  96.353   0.289  -0.274  97.159

                      1                      2                      3
                      A                      A                      A
 Frequencies --     31.5675                72.7985               103.9758
 Red. masses --      2.5241                 1.8125                 2.3624
 Frc consts  --      0.0015                 0.0057                 0.0150
 IR Inten    --      0.0059                 0.0148                 0.0354

                      4                      5                      6
                      A                      A                      A
 Frequencies --    125.8103               223.1243               240.0151
 Red. masses --      1.8764                 1.5583                 1.3174
 Frc consts  --      0.0175                 0.0457                 0.0447
 IR Inten    --      0.0068                 0.0399                 0.0071

                      7                      8                      9
                      A                      A                      A
 Frequencies --    263.8959               286.6362               299.4097
 Red. masses --      1.5121                 1.5614                 2.5721
 Frc consts  --      0.0620                 0.0756                 0.1359
 IR Inten    --      0.0096                 0.0822                 0.1562

                     10                     11                     12
                      A                      A                      A
 Frequencies --    414.8276               531.2211               728.9779
 Red. masses --      2.3591                 2.3596                 1.1642
 Frc consts  --      0.2392                 0.3923                 0.3645
 IR Inten    --      0.3035                 0.0288                 4.9013

                     13                     14                     15
                      A                      A                      A
 Frequencies --    746.3781               784.7601               851.2763
 Red. masses --      1.1900                 1.2383                 1.4405
 Frc consts  --      0.3906                 0.4493                 0.6150
 IR Inten    --      0.5108                 2.4490                 0.3451

                     16                     17                     18
                      A                      A                      A
 Frequencies --    868.4845               903.2853               951.2520
 Red. masses --      1.7804                 1.8878                 1.3417
 Frc consts  --      0.7912                 0.9075                 0.7153
 IR Inten    --      0.9837                 2.4229                 0.7009

                     19                     20                     21
                      A                      A                      A
 Frequencies --    967.4798              1042.8914              1046.1479
 Red. masses --      1.6555                 1.2227                 2.2426
 Frc consts  --      0.9130                 0.7835                 1.4461
 IR Inten    --      1.1012                 0.8361                 0.7337

                     22                     23                     24
                      A                      A                      A
 Frequencies --   1073.4640              1088.7336              1117.8132
 Red. masses --      1.5573                 2.4500                 2.0040
 Frc consts  --      1.0573                 1.7110                 1.4753
 IR Inten    --      0.5988                 0.1485                 0.1559

                     25                     26                     27
                      A                      A                      A
 Frequencies --   1155.9873              1193.9945              1235.5193
 Red. masses --      2.1573                 2.0307                 1.4441
 Frc consts  --      1.6985                 1.7057                 1.2988
 IR Inten    --      0.3019                 0.1271                 2.8130

                     28                     29                     30
                      A                      A                      A
 Frequencies --   1272.3754              1293.3112              1315.4527
 Red. masses --      1.3559                 1.2623                 1.2997
 Frc consts  --      1.2933                 1.2440                 1.3251
 IR Inten    --      1.8471                 0.2247                 0.2677

                     31                     32                     33
                      A                      A                      A
 Frequencies --   1328.8407              1340.7286              1352.2961
 Red. masses --      1.1452                 1.1629                 1.1745
 Frc consts  --      1.1915                 1.2316                 1.2655
 IR Inten    --      0.0760                 1.2820                 0.2708

                     34                     35                     36
                      A                      A                      A
 Frequencies --   1380.5680              1402.2788              1408.9535
 Red. masses --      1.4316                 1.6230                 1.5174
 Frc consts  --      1.6076                 1.8803                 1.7748
 IR Inten    --      2.0275                 0.2824                 0.7276

                     37                     38                     39
                      A                      A                      A
 Frequencies --   1414.7941              1417.5685              1483.1145
 Red. masses --      1.2541                 1.3431                 1.0779
 Frc consts  --      1.4790                 1.5902                 1.3970
 IR Inten    --      2.8744                 5.5509                 0.6391

                     40                     41                     42
                      A                      A                      A
 Frequencies --   1487.6312              1492.9692              1497.9655
 Red. masses --      1.0756                 1.0644                 1.0603
 Frc consts  --      1.4024                 1.3978                 1.4018
 IR Inten    --      1.8729                 1.0169                 1.8670

                     43                     44                     45
                      A                      A                      A
 Frequencies --   1501.1559              1504.1990              1505.6717
 Red. masses --      1.0893                 1.0396                 1.0655
 Frc consts  --      1.4463                 1.3859                 1.4233
 IR Inten    --      1.7385                 8.2405                 5.9520

                     46                     47                     48
                      A                      A                      A
 Frequencies --   1512.7137              1513.1097              3030.5178
 Red. masses --      1.0597                 1.0854                 1.0675
 Frc consts  --      1.4288                 1.4642                 5.7762
 IR Inten    --      7.8775                 6.3645                 0.2035

                     49                     50                     51
                      A                      A                      A
 Frequencies --   3034.0770              3041.6196              3050.7138
 Red. masses --      1.0620                 1.0657                 1.0613
 Frc consts  --      5.7600                 5.8089                 5.8195
 IR Inten    --     10.6621                30.1456                48.6979

                     52                     53                     54
                      A                      A                      A
 Frequencies --   3051.4324              3057.5823              3059.6991
 Red. masses --      1.0624                 1.0370                 1.0380
 Frc consts  --      5.8285                 5.7119                 5.7254
 IR Inten    --      9.8335                39.4791                21.8125

                     55                     56                     57
                      A                      A                      A
 Frequencies --   3069.4928              3080.7944              3088.0254
 Red. masses --      1.0979                 1.0937                 1.0987
 Frc consts  --      6.0944                 6.1159                 6.1727
 IR Inten    --     11.3890                 7.0134                11.5157

                     58                     59                     60
                      A                      A                      A
 Frequencies --   3096.0470              3103.6404              3125.9610
 Red. masses --      1.1018                 1.0985                 1.1028
 Frc consts  --      6.2224                 6.2343                 6.3489
 IR Inten    --     40.5551                55.3046                43.1870

                     61                     62                     63
                      A                      A                      A
 Frequencies --   3127.2260              3132.4202              3137.1887
 Red. masses --      1.1006                 1.1016                 1.1015
 Frc consts  --      6.3415                 6.3685                 6.3876
 IR Inten    --     37.5091                31.4137                36.3521

 - Thermochemistry -
 -------------------
 Temperature   298.150 Kelvin.  Pressure   1.00000 Atm.
 Atom     1 has atomic number  6 and mass  12.00000

 Molecular mass:   100.12520 amu.
 Principal axes and moments of inertia in atomic units:
                           1         2         3
     Eigenvalues --   218.509602031.376862129.15941
           X            1.00000   0.00295   0.00069
           Y           -0.00294   0.99998  -0.00634
           Z           -0.00071   0.00634   0.99998
 This molecule is an asymmetric top.
 Rotational symmetry number  1.
 Rotational temperatures (Kelvin)      0.39638     0.04264     0.04068
 Rotational constants (GHZ):           8.25932     0.88843     0.84763
 Zero-point vibrational energy     574577.5 (Joules/Mol)
                                  137.32733 (Kcal/Mol)
 Warning -- explicit consideration of  11 degrees of freedom as
           vibrations may cause significant error
 Vibrational temperatures:     45.42   104.74   149.60   181.01   321.03
          (Kelvin)            345.33   379.69   412.41   430.78   596.84
                              764.31  1048.84  1073.87  1129.09  1224.80
                             1249.56  1299.63  1368.64  1391.99  1500.49
                             1505.17  1544.48  1566.44  1608.28  1663.21
                             1717.89  1777.64  1830.66  1860.79  1892.64
                             1911.91  1929.01  1945.65  1986.33  2017.57
                             2027.17  2035.57  2039.56  2133.87  2140.37
                             2148.05  2155.24  2159.83  2164.21  2166.33
                             2176.46  2177.03  4360.24  4365.36  4376.21
                             4389.30  4390.33  4399.18  4402.22  4416.32
                             4432.58  4442.98  4454.52  4465.45  4497.56
                             4499.38  4506.85  4513.71

 Zero-point correction=                           0.218845 (Hartree/Particle)
 Thermal correction to Energy=                    0.228481
 Thermal correction to Enthalpy=                  0.229425
 Thermal correction to Gibbs Free Energy=         0.183674
 Sum of electronic and zero-point Energies=           -276.120355
 Sum of electronic and thermal Energies=              -276.110719
 Sum of electronic and thermal Enthalpies=            -276.109774
 Sum of electronic and thermal Free Energies=         -276.155526

                     E (Thermal)             CV                S
                      KCal/Mol        Cal/Mol-Kelvin    Cal/Mol-Kelvin
 Total                  143.374             33.941             96.291
 Electronic               0.000              0.000              0.000
 Translational            0.889              2.981             39.722
 Rotational               0.889              2.981             28.337
 Vibrational            141.597             27.980             28.232
 Vibration     1          0.594              1.983              5.728
 Vibration     2          0.599              1.967              4.076
 Vibration     3          0.605              1.946              3.378
 Vibration     4          0.611              1.927              3.009
 Vibration     5          0.649              1.806              1.934
 Vibration     6          0.657              1.779              1.803
 Vibration     7          0.670              1.739              1.636
 Vibration     8          0.684              1.699              1.494
 Vibration     9          0.692              1.675              1.420
 Vibration    10          0.778              1.438              0.910
 Vibration    11          0.886              1.181              0.584

 Optimization completed.
    -- Stationary point found.
 Normal termination of Gaussian 16 at Sun Sep 29 08:44:43 2019.
