 Gaussian 16, Revision A.03,
 Gaussian 16:  EM64L-G16RevA.03 25-Dec-2016

 ----------------------------------------------------------------------
 #p m062x/cc-pVTZ opt=(calcfc,maxcycles=900,Tight) freq IOP(7/33=1,2/16
 =3) scf=(maxcycle=900)
 ----------------------------------------------------------------------

 ------------------------------
 Gaussian input prepared by ASE
 ------------------------------
 Symbolic Z-matrix:
 Charge =  0 Multiplicity = 1

 SCF Done:  E(RM062X) =  -346.919512374     A.U. after   13 cycles
 SCF Done:  E(RM062X) =  -346.933512900     A.U. after   13 cycles
 SCF Done:  E(RM062X) =  -346.933787460     A.U. after   12 cycles
 SCF Done:  E(RM062X) =  -346.933886945     A.U. after   13 cycles
 SCF Done:  E(RM062X) =  -346.934629607     A.U. after   12 cycles
 SCF Done:  E(RM062X) =  -346.932935380     A.U. after   12 cycles
 SCF Done:  E(RM062X) =  -346.935038192     A.U. after   10 cycles
 SCF Done:  E(RM062X) =  -346.935155840     A.U. after   10 cycles
 SCF Done:  E(RM062X) =  -346.935197925     A.U. after    9 cycles
 SCF Done:  E(RM062X) =  -346.935234730     A.U. after   10 cycles
 SCF Done:  E(RM062X) =  -346.935266042     A.U. after    5 cycles
 SCF Done:  E(RM062X) =  -346.935266043     A.U. after    5 cycles
 SCF Done:  E(RM062X) =  -346.935266051     A.U. after    6 cycles
 SCF Done:  E(RM062X) =  -346.935266042     A.U. after    5 cycles
 SCF Done:  E(RM062X) =  -346.935266042     A.U. after    5 cycles
 SCF Done:  E(RM062X) =  -346.935266043     A.U. after    4 cycles
 SCF Done:  E(RM062X) =  -346.935265551     A.U. after    8 cycles
 SCF Done:  E(RM062X) =  -346.935266041     A.U. after    8 cycles
 SCF Done:  E(RM062X) =  -346.935266042     A.U. after    5 cycles
 Optimization completed.
    -- Stationary point found.
 Normal termination of Gaussian 16 at Fri Sep 27 03:18:56 2019.

 ----------------------------------------------------------------------
 #P Geom=AllCheck Guess=TCheck SCRF=Check Test GenChk RM062X/CC-pVTZ Fr
 eq
 ----------------------------------------------------------------------

 Structure from the checkpoint file:  "/scratch/harms.n/gauss_scrdir/Gau-1030.chk"
 ------------------------------
 Gaussian input prepared by ASE
 ------------------------------
 Charge =  0 Multiplicity = 1

                         Standard orientation:
 ---------------------------------------------------------------------
 Center     Atomic      Atomic             Coordinates (Angstroms)
 Number     Number       Type             X           Y           Z
 ---------------------------------------------------------------------
      1          8           0       -0.419376    0.000770   -1.219392
      2          8           0        2.805901   -0.000362    0.563315
      3          6           0       -1.479816    0.000171   -0.264420
      4          6           0       -1.523118    1.274638    0.566830
      5          6           0       -1.523127   -1.275346    0.565220
      6          6           0        0.887820    0.000547   -0.848027
      7          6           0        1.449530   -0.000252    0.355460
      8          1           0       -2.358566    0.000580   -0.910237
      9          1           0       -0.740011    1.316401    1.320156
     10          1           0       -1.424627    2.144955   -0.080320
     11          1           0       -2.483296    1.332262    1.079601
     12          1           0       -0.740073   -1.318034    1.318550
     13          1           0       -1.424559   -2.144841   -0.083022
     14          1           0       -2.483339   -1.333654    1.077852
     15          1           0        1.522099    0.001144   -1.728571
     16          1           0        0.913241   -0.000905    1.288766
     17          1           0        3.259190    0.000284   -0.284539
 ---------------------------------------------------------------------

 SCF Done:  E(RM062X) =  -346.935266042     A.U. after    1 cycles

 The electronic state is 1-A.
 Alpha  occ. eigenvalues --  -19.64302 -19.64157 -10.59859 -10.58201 -10.58055
 Alpha  occ. eigenvalues --  -10.52962 -10.52961  -1.18103  -1.16865  -0.89540
 Alpha  occ. eigenvalues --   -0.83593  -0.79075  -0.72539  -0.66808  -0.60697
 Alpha  occ. eigenvalues --   -0.56840  -0.52705  -0.52541  -0.49382  -0.49249
 Alpha  occ. eigenvalues --   -0.47572  -0.45740  -0.45567  -0.43390  -0.40943
 Alpha  occ. eigenvalues --   -0.39124  -0.38198  -0.25962
 Alpha virt. eigenvalues --    0.06700   0.06943   0.07674   0.08774   0.11951
 Alpha virt. eigenvalues --    0.12378   0.12831   0.14004   0.16576   0.17808
 Alpha virt. eigenvalues --    0.18144   0.19350   0.22106   0.23062   0.25311

 Mulliken charges:
               1
     1  O   -0.247390
     2  O   -0.353844
     3  C   -0.013661
     4  C   -0.378712
     5  C   -0.378717
     6  C   -0.080826
     7  C   -0.043143
     8  H    0.152050
     9  H    0.134458
    10  H    0.138751
    11  H    0.123235
    12  H    0.134455
    13  H    0.138755
    14  H    0.123237
    15  H    0.136311
    16  H    0.165223
    17  H    0.249819
 Sum of Mulliken charges =  -0.00000

 Dipole moment (field-independent basis, Debye):
    X=             -0.8123    Y=              0.0003    Z=             -0.1772  Tot=              0.8314
 Quadrupole moment (field-independent basis, Debye-Ang):
   XX=            -40.0722   YY=            -45.1783   ZZ=            -44.7179
   XY=              0.0046   XZ=             -6.2367   YZ=             -0.0005

  Exact polarizability:  78.458  -0.001  56.808   1.160  -0.005  64.213
 Approx polarizability:  85.342  -0.004  65.347   6.298  -0.014  85.661

                      1                      2                      3
                      A                      A                      A
 Frequencies --     69.6934               104.7356               181.8809
 Red. masses --      2.2223                 1.3531                 3.7438
 Frc consts  --      0.0064                 0.0087                 0.0730
 IR Inten    --      4.2814                 6.4217                 3.9043

                      4                      5                      6
                      A                      A                      A
 Frequencies --    202.4785               222.6263               251.7803
 Red. masses --      1.1030                 1.4869                 1.3469
 Frc consts  --      0.0266                 0.0434                 0.0503
 IR Inten    --      0.8676                 3.2652                53.4647

                      7                      8                      9
                      A                      A                      A
 Frequencies --    307.4981               350.8312               381.6387
 Red. masses --      2.7350                 3.2370                 2.4807
 Frc consts  --      0.1524                 0.2347                 0.2129
 IR Inten    --      4.3085                21.3080                 3.4366

                     10                     11                     12
                      A                      A                      A
 Frequencies --    448.5168               483.1781               689.2355
 Red. masses --      4.0392                 2.7578                 4.5400
 Frc consts  --      0.4787                 0.3793                 1.2707
 IR Inten    --     14.6824                 5.4310                 4.2825

                     13                     14                     15
                      A                      A                      A
 Frequencies --    801.1890               842.3014               927.9504
 Red. masses --      2.8216                 1.8184                 1.2104
 Frc consts  --      1.0671                 0.7601                 0.6141
 IR Inten    --     10.4409                 0.4436                 6.3406

                     16                     17                     18
                      A                      A                      A
 Frequencies --    942.0468               942.9549               955.1924
 Red. masses --      2.2799                 1.3004                 1.1311
 Frc consts  --      1.1921                 0.6812                 0.6080
 IR Inten    --     19.9469                18.9177                38.5527

                     19                     20                     21
                      A                      A                      A
 Frequencies --   1125.8586              1160.3634              1161.0590
 Red. masses --      1.9134                 2.2193                 2.4169
 Frc consts  --      1.4290                 1.7606                 1.9196
 IR Inten    --     85.4755                15.5785               131.9957

                     22                     23                     24
                      A                      A                      A
 Frequencies --   1192.4434              1229.6384              1297.9067
 Red. masses --      1.9439                 3.7018                 2.0714
 Frc consts  --      1.6285                 3.2977                 2.0559
 IR Inten    --      6.2386               302.0955                68.9564

                     25                     26                     27
                      A                      A                      A
 Frequencies --   1352.8475              1378.8201              1398.2605
 Red. masses --      1.1973                 1.2791                 1.2022
 Frc consts  --      1.2911                 1.4328                 1.3848
 IR Inten    --     33.3800                 1.1214                 1.5625

                     28                     29                     30
                      A                      A                      A
 Frequencies --   1404.7468              1421.7899              1434.2826
 Red. masses --      1.3619                 1.2393                 1.2430
 Frc consts  --      1.5834                 1.4760                 1.5065
 IR Inten    --     21.9840                25.4362                32.3776

                     31                     32                     33
                      A                      A                      A
 Frequencies --   1488.2342              1491.2374              1500.0314
 Red. masses --      1.0466                 1.0652                 1.0581
 Frc consts  --      1.3658                 1.3956                 1.4028
 IR Inten    --      0.1265                 0.0025                 7.6146

                     34                     35                     36
                      A                      A                      A
 Frequencies --   1511.0208              1774.6035              3075.6827
 Red. masses --      1.0633                 5.8756                 1.0366
 Frc consts  --      1.4304                10.9020                 5.7777
 IR Inten    --      4.4001                 1.2810                14.0654

                     37                     38                     39
                      A                      A                      A
 Frequencies --   3078.7056              3085.9059              3144.4091
 Red. masses --      1.0386                 1.0846                 1.1014
 Frc consts  --      5.8003                 6.0851                 6.4160
 IR Inten    --      7.2076                17.5905                 6.2275

                     40                     41                     42
                      A                      A                      A
 Frequencies --   3146.5478              3163.6207              3166.6521
 Red. masses --      1.1018                 1.1011                 1.1002
 Frc consts  --      6.4274                 6.4928                 6.5004
 IR Inten    --     24.6255                 2.3207                35.6663

                     43                     44                     45
                      A                      A                      A
 Frequencies --   3172.8046              3282.0567              3872.0209
 Red. masses --      1.0902                 1.0921                 1.0656
 Frc consts  --      6.4660                 6.9310                 9.4125
 IR Inten    --     23.3464                 9.3872                46.6134

 - Thermochemistry -
 -------------------
 Temperature   298.150 Kelvin.  Pressure   1.00000 Atm.
 Atom     1 has atomic number  8 and mass  15.99491

 Molecular mass:   102.06808 amu.
 Principal axes and moments of inertia in atomic units:
                           1         2         3
     Eigenvalues --   407.230481206.141601217.93827
           X            0.99945  -0.03317  -0.00000
           Y           -0.00002  -0.00078   1.00000
           Z            0.03317   0.99945   0.00078
 This molecule is an asymmetric top.
 Rotational symmetry number  1.
 Rotational temperatures (Kelvin)      0.21269     0.07181     0.07112
 Rotational constants (GHZ):           4.43174     1.49629     1.48180
 Zero-point vibrational energy     386497.2 (Joules/Mol)
                                   92.37504 (Kcal/Mol)
 Warning -- explicit consideration of  11 degrees of freedom as
           vibrations may cause significant error
 Vibrational temperatures:    100.27   150.69   261.69   291.32   320.31
          (Kelvin)            362.26   442.42   504.77   549.09   645.32
                              695.19   991.66  1152.73  1211.88  1335.11
                             1355.40  1356.70  1374.31  1619.86  1669.50
                             1670.50  1715.66  1769.18  1867.40  1946.45
                             1983.81  2011.78  2021.12  2045.64  2063.61
                             2141.24  2145.56  2158.21  2174.02  2553.26
                             4425.22  4429.57  4439.93  4524.10  4527.18
                             4551.74  4556.11  4564.96  4722.15  5570.97

 Zero-point correction=                           0.147209 (Hartree/Particle)
 Thermal correction to Energy=                    0.155937
 Thermal correction to Enthalpy=                  0.156881
 Thermal correction to Gibbs Free Energy=         0.114152
 Sum of electronic and zero-point Energies=           -346.788057
 Sum of electronic and thermal Energies=              -346.779329
 Sum of electronic and thermal Enthalpies=            -346.778385
 Sum of electronic and thermal Free Energies=         -346.821114

                     E (Thermal)             CV                S
                      KCal/Mol        Cal/Mol-Kelvin    Cal/Mol-Kelvin
 Total                   97.852             30.640             89.930
 Electronic               0.000              0.000              0.000
 Translational            0.889              2.981             39.779
 Rotational               0.889              2.981             27.883
 Vibrational             96.075             24.678             22.268
 Vibration     1          0.598              1.969              4.162
 Vibration     2          0.605              1.945              3.364
 Vibration     3          0.630              1.864              2.309
 Vibration     4          0.639              1.836              2.110
 Vibration     5          0.648              1.807              1.938
 Vibration     6          0.664              1.760              1.718
 Vibration     7          0.697              1.659              1.376
 Vibration     8          0.728              1.574              1.162
 Vibration     9          0.751              1.509              1.033
 Vibration    10          0.808              1.364              0.800
 Vibration    11          0.839              1.287              0.702

                           ! Non-Optimized Parameters !
 Normal termination of Gaussian 16 at Fri Sep 27 04:41:50 2019.
