 Gaussian 16, Revision A.03,
 Gaussian 16:  EM64L-G16RevA.03 25-Dec-2016

 ----------------------------------------------------------------------
 #p m062x/cc-pVTZ opt=(calcfc,maxcycles=900,Tight) freq IOP(7/33=1,2/16
 =3) scf=(maxcycle=900)
 ----------------------------------------------------------------------

 ------------------------------
 Gaussian input prepared by ASE
 ------------------------------
 Symbolic Z-matrix:
 Charge =  0 Multiplicity = 1

 SCF Done:  E(RM062X) =  -346.915516093     A.U. after   13 cycles
 SCF Done:  E(RM062X) =  -346.928431815     A.U. after   13 cycles
 SCF Done:  E(RM062X) =  -346.922065091     A.U. after   12 cycles
 SCF Done:  E(RM062X) =  -346.931834800     A.U. after   12 cycles
 SCF Done:  E(RM062X) =  -346.932853558     A.U. after   13 cycles
 SCF Done:  E(RM062X) =  -346.932441325     A.U. after   12 cycles
 SCF Done:  E(RM062X) =  -346.933510887     A.U. after   11 cycles
 SCF Done:  E(RM062X) =  -346.933909918     A.U. after   11 cycles
 SCF Done:  E(RM062X) =  -346.934222145     A.U. after   11 cycles
 SCF Done:  E(RM062X) =  -346.935104596     A.U. after   12 cycles
 SCF Done:  E(RM062X) =  -346.949511535     A.U. after   10 cycles
 SCF Done:  E(RM062X) =  -346.949526732     A.U. after   10 cycles
 SCF Done:  E(RM062X) =  -346.949535051     A.U. after    9 cycles
 SCF Done:  E(RM062X) =  -346.949535264     A.U. after    7 cycles
 SCF Done:  E(RM062X) =  -346.949535491     A.U. after    8 cycles
 SCF Done:  E(RM062X) =  -346.949535494     A.U. after    5 cycles
 SCF Done:  E(RM062X) =  -346.949535506     A.U. after    5 cycles
 SCF Done:  E(RM062X) =  -346.949535501     A.U. after    3 cycles
 SCF Done:  E(RM062X) =  -346.949535509     A.U. after    4 cycles
 Optimization completed.
    -- Stationary point found.
 Normal termination of Gaussian 16 at Sun Sep 29 16:25:26 2019.

 ----------------------------------------------------------------------
 #P Geom=AllCheck Guess=TCheck SCRF=Check Test GenChk RM062X/CC-pVTZ Fr
 eq
 ----------------------------------------------------------------------

 Structure from the checkpoint file:  "/scratch/harms.n/gauss_scrdir/Gau-6749.chk"
 ------------------------------
 Gaussian input prepared by ASE
 ------------------------------
 Charge =  0 Multiplicity = 1

                         Standard orientation:
 ---------------------------------------------------------------------
 Center     Atomic      Atomic             Coordinates (Angstroms)
 Number     Number       Type             X           Y           Z
 ---------------------------------------------------------------------
      1          8           0        0.078786   -0.681148    0.101522
      2          8           0       -2.346303    0.325326    0.925802
      3          6           0        1.295915   -0.066506   -0.336546
      4          6           0        2.393971   -0.600578    0.556808
      5          6           0        1.174486    1.445339   -0.275829
      6          6           0       -0.969198   -0.563119   -0.777878
      7          6           0       -2.133168   -0.099263   -0.344512
      8          1           0        1.475649   -0.379186   -1.371955
      9          1           0        2.197151   -0.319122    1.591773
     10          1           0        2.441816   -1.686216    0.496664
     11          1           0        3.357822   -0.186552    0.263128
     12          1           0        1.019570    1.762789    0.756596
     13          1           0        0.332152    1.789764   -0.874912
     14          1           0        2.082326    1.918071   -0.649994
     15          1           0       -0.811082   -0.897107   -1.795288
     16          1           0       -3.006391   -0.044986   -0.975885
     17          1           0       -1.520904    0.193885    1.409034
 ---------------------------------------------------------------------

 SCF Done:  E(RM062X) =  -346.949535509     A.U. after    1 cycles

 The electronic state is 1-A.
 Alpha  occ. eigenvalues --  -19.64448 -19.64208 -10.59928 -10.58483 -10.57298
 Alpha  occ. eigenvalues --  -10.53065 -10.52986  -1.19078  -1.16458  -0.89951
 Alpha  occ. eigenvalues --   -0.83090  -0.79072  -0.70572  -0.66669  -0.61273
 Alpha  occ. eigenvalues --   -0.58351  -0.53927  -0.52658  -0.50918  -0.46962
 Alpha  occ. eigenvalues --   -0.46169  -0.45783  -0.44998  -0.43893  -0.42445
 Alpha  occ. eigenvalues --   -0.39942  -0.36880  -0.27172
 Alpha virt. eigenvalues --    0.06206   0.07943   0.08233   0.10142   0.11279
 Alpha virt. eigenvalues --    0.11472   0.12453   0.14142   0.15717   0.16435
 Alpha virt. eigenvalues --    0.17801   0.18389   0.20272   0.22689   0.24780

 Mulliken charges:
               1
     1  O   -0.297772
     2  O   -0.350757
     3  C    0.022794
     4  C   -0.337689
     5  C   -0.371536
     6  C   -0.097202
     7  C    0.011917
     8  H    0.129570
     9  H    0.119402
    10  H    0.126985
    11  H    0.109560
    12  H    0.125994
    13  H    0.139481
    14  H    0.126752
    15  H    0.122637
    16  H    0.153537
    17  H    0.266326
 Sum of Mulliken charges =  -0.00000

 Dipole moment (field-independent basis, Debye):
    X=              1.8740    Y=              0.3529    Z=             -1.0682  Tot=              2.1857
 Quadrupole moment (field-independent basis, Debye-Ang):
   XX=            -44.5983   YY=            -45.9385   ZZ=            -41.3023
   XY=              0.9268   XZ=              2.6559   YZ=              0.7834

  Exact polarizability:  83.836  -3.022  58.268  -0.373   2.600  61.809
 Approx polarizability:  89.837  -5.124  69.374  -4.051   3.957  77.371

                      1                      2                      3
                      A                      A                      A
 Frequencies --     31.2434                79.8490               191.8238
 Red. masses --      3.8031                 3.4961                 2.7322
 Frc consts  --      0.0022                 0.0131                 0.0592
 IR Inten    --      0.6818                 0.4956                 2.1512

                      4                      5                      6
                      A                      A                      A
 Frequencies --    212.6181               244.5629               303.9394
 Red. masses --      1.0979                 1.1646                 3.0882
 Frc consts  --      0.0292                 0.0410                 0.1681
 IR Inten    --      0.3979                 0.8334                 5.9609

                      7                      8                      9
                      A                      A                      A
 Frequencies --    355.7872               407.4033               487.2343
 Red. masses --      2.2545                 2.3847                 2.3681
 Frc consts  --      0.1681                 0.2332                 0.3312
 IR Inten    --      0.9333                 5.3482                 0.9176

                     10                     11                     12
                      A                      A                      A
 Frequencies --    506.4826               592.0314               734.5748
 Red. masses --      1.2876                 2.8736                 2.8539
 Frc consts  --      0.1946                 0.5934                 0.9073
 IR Inten    --     89.5965                19.4283                21.6752

                     13                     14                     15
                      A                      A                      A
 Frequencies --    785.9233               870.8217               926.4896
 Red. masses --      1.5199                 2.5549                 1.2980
 Frc consts  --      0.5531                 1.1415                 0.6565
 IR Inten    --     32.3662                 2.5312                 6.6735

                     16                     17                     18
                      A                      A                      A
 Frequencies --    934.9885               949.3087               968.1156
 Red. masses --      1.1754                 1.5096                 2.2275
 Frc consts  --      0.6054                 0.8016                 1.2301
 IR Inten    --      0.3424                 1.5970                 9.3515

                     19                     20                     21
                      A                      A                      A
 Frequencies --   1087.3966              1151.9715              1167.9859
 Red. masses --      3.0661                 2.3621                 2.1575
 Frc consts  --      2.1361                 1.8468                 1.7341
 IR Inten    --     63.3707               173.4026               106.6726

                     22                     23                     24
                      A                      A                      A
 Frequencies --   1181.6108              1206.5335              1248.2373
 Red. masses --      2.1478                 1.7995                 1.3901
 Frc consts  --      1.7668                 1.5434                 1.2761
 IR Inten    --     31.3007                37.5614                64.1103

                     25                     26                     27
                      A                      A                      A
 Frequencies --   1368.5620              1371.0721              1375.9364
 Red. masses --      1.4938                 1.2891                 1.2531
 Frc consts  --      1.6484                 1.4278                 1.3978
 IR Inten    --      0.2278                 5.2800                49.9467

                     28                     29                     30
                      A                      A                      A
 Frequencies --   1407.4588              1418.1531              1434.1562
 Red. masses --      1.4554                 1.3121                 1.3970
 Frc consts  --      1.6987                 1.5547                 1.6930
 IR Inten    --     25.9474                34.6890                49.6539

                     31                     32                     33
                      A                      A                      A
 Frequencies --   1483.3857              1488.5413              1495.8032
 Red. masses --      1.0588                 1.0484                 1.0557
 Frc consts  --      1.3727                 1.3687                 1.3917
 IR Inten    --      1.0719                 0.0417                 5.5973

                     34                     35                     36
                      A                      A                      A
 Frequencies --   1512.5855              1775.9117              3023.5625
 Red. masses --      1.0592                 6.2752                 1.0841
 Frc consts  --      1.4278                11.6605                 5.8394
 IR Inten    --      8.6232                57.9772                28.6651

                     37                     38                     39
                      A                      A                      A
 Frequencies --   3061.6647              3069.5318              3134.7188
 Red. masses --      1.0355                 1.0356                 1.1020
 Frc consts  --      5.7190                 5.7487                 6.3799
 IR Inten    --     10.2352                13.0543                 7.8737

                     40                     41                     42
                      A                      A                      A
 Frequencies --   3143.3676              3145.7074              3155.2572
 Red. masses --      1.1018                 1.1020                 1.1030
 Frc consts  --      6.4144                 6.4252                 6.4701
 IR Inten    --     18.6092                24.4731                16.1220

                     43                     44                     45
                      A                      A                      A
 Frequencies --   3202.1740              3255.4292              3819.3612
 Red. masses --      1.0896                 1.0984                 1.0645
 Frc consts  --      6.5826                 6.8584                 9.1487
 IR Inten    --      8.8352                 7.3447                51.7133

 - Thermochemistry -
 -------------------
 Temperature   298.150 Kelvin.  Pressure   1.00000 Atm.
 Atom     1 has atomic number  8 and mass  15.99491

 Molecular mass:   102.06808 amu.
 Principal axes and moments of inertia in atomic units:
                           1         2         3
     Eigenvalues --   348.917801222.403851277.13155
           X            0.99982   0.00502   0.01839
           Y           -0.00451   0.99961  -0.02771
           Z           -0.01852   0.02762   0.99945
 This molecule is an asymmetric top.
 Rotational symmetry number  1.
 Rotational temperatures (Kelvin)      0.24824     0.07086     0.06782
 Rotational constants (GHZ):           5.17240     1.47639     1.41312
 Zero-point vibrational energy     387406.3 (Joules/Mol)
                                   92.59233 (Kcal/Mol)
 Warning -- explicit consideration of  11 degrees of freedom as
           vibrations may cause significant error
 Vibrational temperatures:     44.95   114.88   275.99   305.91   351.87
          (Kelvin)            437.30   511.90   586.16   701.02   728.72
                              851.80  1056.89  1130.77  1252.92  1333.01
                             1345.24  1365.84  1392.90  1564.52  1657.43
                             1680.47  1700.07  1735.93  1795.94  1969.06
                             1972.67  1979.67  2025.02  2040.41  2063.43
                             2134.26  2141.68  2152.13  2176.27  2555.14
                             4350.23  4405.05  4416.37  4510.16  4522.60
                             4525.97  4539.71  4607.21  4683.84  5495.21

 Zero-point correction=                           0.147555 (Hartree/Particle)
 Thermal correction to Energy=                    0.155941
 Thermal correction to Enthalpy=                  0.156885
 Thermal correction to Gibbs Free Energy=         0.114106
 Sum of electronic and zero-point Energies=           -346.801980
 Sum of electronic and thermal Energies=              -346.793594
 Sum of electronic and thermal Enthalpies=            -346.792650
 Sum of electronic and thermal Free Energies=         -346.835429

                     E (Thermal)             CV                S
                      KCal/Mol        Cal/Mol-Kelvin    Cal/Mol-Kelvin
 Total                   97.855             29.676             90.037
 Electronic               0.000              0.000              0.000
 Translational            0.889              2.981             39.779
 Rotational               0.889              2.981             27.790
 Vibrational             96.077             23.715             22.468
 Vibration     1          0.594              1.983              5.749
 Vibration     2          0.600              1.963              3.895
 Vibration     3          0.634              1.851              2.210
 Vibration     4          0.644              1.822              2.021
 Vibration     5          0.660              1.772              1.769
 Vibration     6          0.695              1.666              1.395
 Vibration     7          0.731              1.563              1.140
 Vibration     8          0.772              1.454              0.936
 Vibration     9          0.843              1.278              0.691
 Vibration    10          0.862              1.236              0.642
 Vibration    11          0.950              1.049              0.464

                           ! Non-Optimized Parameters !
 Normal termination of Gaussian 16 at Sun Sep 29 17:46:57 2019.
