 Gaussian 16, Revision A.03,
 Gaussian 16:  EM64L-G16RevA.03 25-Dec-2016

 ----------------------------------------------------------------------
 #p m062x/cc-pVTZ opt=(calcfc,maxcycles=900,Tight) freq IOP(7/33=1,2/16
 =3) scf=(maxcycle=900)
 ----------------------------------------------------------------------

 ------------------------------
 Gaussian input prepared by ASE
 ------------------------------
 Symbolic Z-matrix:
 Charge =  0 Multiplicity = 1

 SCF Done:  E(RM062X) =  -346.925728653     A.U. after   13 cycles
 SCF Done:  E(RM062X) =  -346.937436321     A.U. after   14 cycles
 SCF Done:  E(RM062X) =  -346.934692188     A.U. after   14 cycles
 SCF Done:  E(RM062X) =  -346.940492696     A.U. after   11 cycles
 SCF Done:  E(RM062X) =  -346.941591388     A.U. after   11 cycles
 SCF Done:  E(RM062X) =  -346.941860878     A.U. after   11 cycles
 SCF Done:  E(RM062X) =  -346.941905805     A.U. after   11 cycles
 SCF Done:  E(RM062X) =  -346.941947675     A.U. after   10 cycles
 SCF Done:  E(RM062X) =  -346.941982874     A.U. after   10 cycles
 SCF Done:  E(RM062X) =  -346.941992112     A.U. after    9 cycles
 SCF Done:  E(RM062X) =  -346.941993260     A.U. after    8 cycles
 SCF Done:  E(RM062X) =  -346.941993627     A.U. after    8 cycles
 SCF Done:  E(RM062X) =  -346.941993711     A.U. after    7 cycles
 SCF Done:  E(RM062X) =  -346.941993726     A.U. after    6 cycles
 Optimization completed.
    -- Stationary point found.
 Normal termination of Gaussian 16 at Fri Sep 27 02:51:13 2019.

 ----------------------------------------------------------------------
 #P Geom=AllCheck Guess=TCheck SCRF=Check Test GenChk RM062X/CC-pVTZ Fr
 eq
 ----------------------------------------------------------------------

 Structure from the checkpoint file:  "/scratch/harms.n/gauss_scrdir/Gau-6625.chk"
 ------------------------------
 Gaussian input prepared by ASE
 ------------------------------
 Charge =  0 Multiplicity = 1

                         Standard orientation:
 ---------------------------------------------------------------------
 Center     Atomic      Atomic             Coordinates (Angstroms)
 Number     Number       Type             X           Y           Z
 ---------------------------------------------------------------------
      1          8           0       -0.294643   -0.687848   -0.211740
      2          8           0        3.233540    0.133479    0.023493
      3          6           0       -1.403879    0.017669    0.349285
      4          6           0       -2.648705   -0.699227   -0.126803
      5          6           0       -1.378643    1.477513   -0.066831
      6          6           0        0.914957   -0.370308    0.337547
      7          6           0        1.965408   -0.092690   -0.420840
      8          1           0       -1.333269   -0.052345    1.442384
      9          1           0       -2.627177   -1.744122    0.177152
     10          1           0       -3.540628   -0.228426    0.284946
     11          1           0       -2.702848   -0.656441   -1.214831
     12          1           0       -1.450483    1.551043   -1.152737
     13          1           0       -0.453915    1.958077    0.250365
     14          1           0       -2.217682    2.014070    0.375786
     15          1           0        0.976481   -0.408468    1.424833
     16          1           0        1.885230   -0.048549   -1.497440
     17          1           0        3.258287    0.052362    0.981363
 ---------------------------------------------------------------------

 SCF Done:  E(RM062X) =  -346.941993726     A.U. after    1 cycles

 The electronic state is 1-A.
 Alpha  occ. eigenvalues --  -19.64883 -19.63745 -10.59443 -10.58582 -10.57637
 Alpha  occ. eigenvalues --  -10.52609 -10.52565  -1.18267  -1.17275  -0.89692
 Alpha  occ. eigenvalues --   -0.82907  -0.78618  -0.70514  -0.67306  -0.60954
 Alpha  occ. eigenvalues --   -0.58322  -0.53328  -0.52463  -0.50364  -0.47283
 Alpha  occ. eigenvalues --   -0.46052  -0.45712  -0.44953  -0.43480  -0.41873
 Alpha  occ. eigenvalues --   -0.39641  -0.36442  -0.26955
 Alpha virt. eigenvalues --    0.06358   0.07196   0.07651   0.09072   0.11327
 Alpha virt. eigenvalues --    0.12262   0.13383   0.14065   0.15165   0.16581
 Alpha virt. eigenvalues --    0.18273   0.18771   0.20960   0.23271   0.25719

 Mulliken charges:
               1
     1  O   -0.263861
     2  O   -0.339333
     3  C    0.017707
     4  C   -0.340456
     5  C   -0.359523
     6  C   -0.107635
     7  C    0.012271
     8  H    0.121779
     9  H    0.124788
    10  H    0.106580
    11  H    0.123069
    12  H    0.126507
    13  H    0.129512
    14  H    0.122024
    15  H    0.110097
    16  H    0.165692
    17  H    0.250781
 Sum of Mulliken charges =  -0.00000

 Dipole moment (field-independent basis, Debye):
    X=             -1.0395    Y=              0.6903    Z=              1.8014  Tot=              2.1914
 Quadrupole moment (field-independent basis, Debye-Ang):
   XX=            -44.5373   YY=            -46.2817   ZZ=            -39.9640
   XY=             -0.9386   XZ=              3.5146   YZ=             -0.6169

  Exact polarizability:  88.347   2.386  57.169  -2.984  -1.318  61.851
 Approx polarizability:  91.107   3.404  67.432  -5.679  -1.407  78.908

                      1                      2                      3
                      A                      A                      A
 Frequencies --     63.5092                73.2458               160.3854
 Red. masses --      2.5267                 3.1045                 2.3824
 Frc consts  --      0.0060                 0.0098                 0.0361
 IR Inten    --      3.7671                 2.9025                 8.6700

                      4                      5                      6
                      A                      A                      A
 Frequencies --    207.9670               253.3872               303.7184
 Red. masses --      1.0352                 1.1125                 1.9253
 Frc consts  --      0.0264                 0.0421                 0.1046
 IR Inten    --      0.3479                 0.8579                26.2475

                      7                      8                      9
                      A                      A                      A
 Frequencies --    334.6630               367.5650               382.5730
 Red. masses --      2.5083                 2.9781                 1.8174
 Frc consts  --      0.1655                 0.2371                 0.1567
 IR Inten    --      0.2213                 9.5726                52.2882

                     10                     11                     12
                      A                      A                      A
 Frequencies --    464.6866               484.7751               609.2940
 Red. masses --      3.3611                 2.6516                 3.7745
 Frc consts  --      0.4276                 0.3672                 0.8256
 IR Inten    --      1.3122                11.1156                 8.6400

                     13                     14                     15
                      A                      A                      A
 Frequencies --    842.0994               868.0170               934.9582
 Red. masses --      2.1325                 2.1722                 1.1724
 Frc consts  --      0.8910                 0.9643                 0.6038
 IR Inten    --     15.3560                 5.9978                 0.6220

                     16                     17                     18
                      A                      A                      A
 Frequencies --    948.5217               951.8608               970.6868
 Red. masses --      1.2696                 1.3435                 2.0635
 Frc consts  --      0.6730                 0.7172                 1.1456
 IR Inten    --     29.4603                15.3095                26.6096

                     19                     20                     21
                      A                      A                      A
 Frequencies --   1128.1369              1163.9960              1181.0459
 Red. masses --      2.1179                 2.0063                 2.1631
 Frc consts  --      1.5881                 1.6016                 1.7777
 IR Inten    --    130.5701                 7.6105                72.5569

                     22                     23                     24
                      A                      A                      A
 Frequencies --   1199.9117              1233.4050              1279.9020
 Red. masses --      2.0514                 4.1856                 1.7824
 Frc consts  --      1.7402                 3.7517                 1.7203
 IR Inten    --     47.7377               316.3861                35.0822

                     25                     26                     27
                      A                      A                      A
 Frequencies --   1325.0915              1370.4560              1372.6634
 Red. masses --      1.2007                 1.2578                 1.3118
 Frc consts  --      1.2421                 1.3918                 1.4562
 IR Inten    --      0.9022                42.7045                52.8558

                     28                     29                     30
                      A                      A                      A
 Frequencies --   1401.8725              1407.1145              1421.1078
 Red. masses --      1.2835                 1.4576                 1.3395
 Frc consts  --      1.4861                 1.7004                 1.5939
 IR Inten    --     29.1476                24.7478                10.3724

                     31                     32                     33
                      A                      A                      A
 Frequencies --   1482.4859              1489.6653              1495.4106
 Red. masses --      1.0578                 1.0486                 1.0545
 Frc consts  --      1.3697                 1.3710                 1.3894
 IR Inten    --      0.8740                 0.1856                 6.3727

                     34                     35                     36
                      A                      A                      A
 Frequencies --   1513.4781              1784.3041              3009.6228
 Red. masses --      1.0576                 6.0081                 1.0837
 Frc consts  --      1.4273                11.2701                 5.7832
 IR Inten    --      5.8298                12.5210                36.5619

                     37                     38                     39
                      A                      A                      A
 Frequencies --   3063.4958              3070.2660              3120.3607
 Red. masses --      1.0350                 1.0353                 1.0899
 Frc consts  --      5.7231                 5.7497                 6.2526
 IR Inten    --     10.6745                13.7990                35.4041

                     40                     41                     42
                      A                      A                      A
 Frequencies --   3137.6919              3144.4683              3146.2160
 Red. masses --      1.1025                 1.1021                 1.1019
 Frc consts  --      6.3954                 6.4206                 6.4266
 IR Inten    --      6.0813                15.7262                31.5690

                     43                     44                     45
                      A                      A                      A
 Frequencies --   3154.5979              3236.4274              3869.1353
 Red. masses --      1.1030                 1.0934                 1.0656
 Frc consts  --      6.4670                 6.7479                 9.3985
 IR Inten    --     16.8194                 6.1424                48.6161

 - Thermochemistry -
 -------------------
 Temperature   298.150 Kelvin.  Pressure   1.00000 Atm.
 Atom     1 has atomic number  8 and mass  15.99491

 Molecular mass:   102.06808 amu.
 Principal axes and moments of inertia in atomic units:
                           1         2         3
     Eigenvalues --   257.610721509.584931649.96809
           X            0.99998  -0.00239   0.00587
           Y            0.00248   0.99987  -0.01590
           Z           -0.00583   0.01591   0.99986
 This molecule is an asymmetric top.
 Rotational symmetry number  1.
 Rotational temperatures (Kelvin)      0.33622     0.05738     0.05249
 Rotational constants (GHZ):           7.00569     1.19552     1.09380
 Zero-point vibrational energy     385342.5 (Joules/Mol)
                                   92.09908 (Kcal/Mol)
 Warning -- explicit consideration of  12 degrees of freedom as
           vibrations may cause significant error
 Vibrational temperatures:     91.38   105.38   230.76   299.22   364.57
          (Kelvin)            436.98   481.51   528.84   550.44   668.58
                              697.48   876.64  1211.59  1248.88  1345.20
                             1364.71  1369.52  1396.60  1623.14  1674.73
                             1699.26  1726.41  1774.59  1841.49  1906.51
                             1971.78  1974.96  2016.98  2024.52  2044.66
                             2132.97  2143.30  2151.56  2177.56  2567.22
                             4330.18  4407.69  4417.43  4489.50  4514.44
                             4524.19  4526.70  4538.76  4656.50  5566.82

 Zero-point correction=                           0.146769 (Hartree/Particle)
 Thermal correction to Energy=                    0.155435
 Thermal correction to Enthalpy=                  0.156380
 Thermal correction to Gibbs Free Energy=         0.113473
 Sum of electronic and zero-point Energies=           -346.795225
 Sum of electronic and thermal Energies=              -346.786558
 Sum of electronic and thermal Enthalpies=            -346.785614
 Sum of electronic and thermal Free Energies=         -346.828521

                     E (Thermal)             CV                S
                      KCal/Mol        Cal/Mol-Kelvin    Cal/Mol-Kelvin
 Total                   97.537             30.444             90.304
 Electronic               0.000              0.000              0.000
 Translational            0.889              2.981             39.779
 Rotational               0.889              2.981             27.953
 Vibrational             95.760             24.482             22.573
 Vibration     1          0.597              1.972              4.345
 Vibration     2          0.599              1.967              4.064
 Vibration     3          0.622              1.891              2.545
 Vibration     4          0.641              1.828              2.061
 Vibration     5          0.665              1.757              1.707
 Vibration     6          0.695              1.667              1.396
 Vibration     7          0.716              1.606              1.237
 Vibration     8          0.740              1.539              1.090
 Vibration     9          0.752              1.507              1.029
 Vibration    10          0.822              1.328              0.753
 Vibration    11          0.841              1.284              0.697
 Vibration    12          0.968              1.012              0.434

 Optimization completed.
    -- Stationary point found.
 Normal termination of Gaussian 16 at Fri Sep 27 04:26:20 2019.
