 Gaussian 16, Revision A.03,
 Gaussian 16:  EM64L-G16RevA.03 25-Dec-2016

 ----------------------------------------------------------------------
 #p m062x/cc-pVTZ opt=(calcfc,maxcycles=900,Tight) freq IOP(7/33=1,2/16
 =3) scf=(maxcycle=900)
 ----------------------------------------------------------------------

 ------------------------------
 Gaussian input prepared by ASE
 ------------------------------
 Symbolic Z-matrix:
 Charge =  0 Multiplicity = 1

 SCF Done:  E(RM062X) =  -346.923600140     A.U. after   12 cycles
 SCF Done:  E(RM062X) =  -346.934473666     A.U. after   14 cycles
 SCF Done:  E(RM062X) =  -346.908018516     A.U. after   14 cycles
 SCF Done:  E(RM062X) =  -346.936993084     A.U. after   13 cycles
 SCF Done:  E(RM062X) =  -346.936851144     A.U. after   11 cycles
 SCF Done:  E(RM062X) =  -346.938651016     A.U. after   12 cycles
 SCF Done:  E(RM062X) =  -346.939422678     A.U. after   11 cycles
 SCF Done:  E(RM062X) =  -346.940043103     A.U. after   12 cycles
 SCF Done:  E(RM062X) =  -346.940254718     A.U. after   10 cycles
 SCF Done:  E(RM062X) =  -346.940345131     A.U. after   10 cycles
 SCF Done:  E(RM062X) =  -346.940351889     A.U. after    9 cycles
 SCF Done:  E(RM062X) =  -346.940352568     A.U. after    7 cycles
 SCF Done:  E(RM062X) =  -346.940352582     A.U. after    6 cycles
 SCF Done:  E(RM062X) =  -346.940352584     A.U. after    4 cycles
 SCF Done:  E(RM062X) =  -346.940352583     A.U. after    3 cycles
 SCF Done:  E(RM062X) =  -346.940352582     A.U. after    4 cycles
 SCF Done:  E(RM062X) =  -346.940352583     A.U. after    4 cycles
 Optimization completed.
    -- Stationary point found.
 Normal termination of Gaussian 16 at Thu Sep 26 23:36:08 2019.

 ----------------------------------------------------------------------
 #P Geom=AllCheck Guess=TCheck SCRF=Check Test GenChk RM062X/CC-pVTZ Fr
 eq
 ----------------------------------------------------------------------

 Structure from the checkpoint file:  "/scratch/harms.n/gauss_scrdir/Gau-4255.chk"
 ------------------------------
 Gaussian input prepared by ASE
 ------------------------------
 Charge =  0 Multiplicity = 1

                         Standard orientation:
 ---------------------------------------------------------------------
 Center     Atomic      Atomic             Coordinates (Angstroms)
 Number     Number       Type             X           Y           Z
 ---------------------------------------------------------------------
      1          8           0       -0.388559   -0.817987    0.489391
      2          8           0        3.054978    0.160155   -0.132841
      3          6           0       -1.183803    0.076036   -0.286216
      4          6           0       -1.283926    1.431503    0.395843
      5          6           0       -2.538935   -0.584882   -0.432357
      6          6           0        0.957693   -0.701922    0.421132
      7          6           0        1.680932    0.170018   -0.272141
      8          1           0       -0.722467    0.178664   -1.273989
      9          1           0       -1.802459    1.319681    1.348328
     10          1           0       -0.301736    1.858163    0.588722
     11          1           0       -1.848514    2.126063   -0.226107
     12          1           0       -2.976351   -0.745987    0.553056
     13          1           0       -2.444308   -1.547675   -0.930937
     14          1           0       -3.209244    0.049303   -1.011554
     15          1           0        1.459045   -1.433107    1.041114
     16          1           0        1.263736    0.950224   -0.895105
     17          1           0        3.459185    0.162809   -1.003489
 ---------------------------------------------------------------------

 SCF Done:  E(RM062X) =  -346.940352583     A.U. after    1 cycles

 The electronic state is 1-A.
 Alpha  occ. eigenvalues --  -19.64733 -19.63456 -10.59781 -10.58179 -10.57509
 Alpha  occ. eigenvalues --  -10.52833 -10.52817  -1.18701  -1.16114  -0.89900
 Alpha  occ. eigenvalues --   -0.83334  -0.78738  -0.71588  -0.64163  -0.61738
 Alpha  occ. eigenvalues --   -0.58133  -0.53998  -0.53602  -0.49762  -0.47761
 Alpha  occ. eigenvalues --   -0.46614  -0.45791  -0.44168  -0.42902  -0.40716
 Alpha  occ. eigenvalues --   -0.39007  -0.37816  -0.26852
 Alpha virt. eigenvalues --    0.06317   0.06994   0.08065   0.10360   0.11285
 Alpha virt. eigenvalues --    0.12344   0.12386   0.14183   0.15913   0.17499
 Alpha virt. eigenvalues --    0.17954   0.18719   0.20107   0.23329   0.24853

 Mulliken charges:
               1
     1  O   -0.243539
     2  O   -0.348705
     3  C   -0.009653
     4  C   -0.357122
     5  C   -0.344878
     6  C   -0.017857
     7  C   -0.089909
     8  H    0.132802
     9  H    0.127589
    10  H    0.140088
    11  H    0.121460
    12  H    0.123844
    13  H    0.125207
    14  H    0.107990
    15  H    0.160906
    16  H    0.121683
    17  H    0.250093
 Sum of Mulliken charges =  -0.00000

 Dipole moment (field-independent basis, Debye):
    X=             -0.7305    Y=              0.8477    Z=             -2.0463  Tot=              2.3322
 Quadrupole moment (field-independent basis, Debye-Ang):
   XX=            -42.4445   YY=            -44.2721   ZZ=            -42.0762
   XY=             -1.1727   XZ=             -4.3215   YZ=             -1.2628

  Exact polarizability:  83.575   2.595  62.054  -2.726  -3.768  57.693
 Approx polarizability:  86.422   5.403  75.417  -5.276  -7.957  74.502

                      1                      2                      3
                      A                      A                      A
 Frequencies --    101.2730               167.2515               170.1152
 Red. masses --      3.6130                 2.4544                 1.6732
 Frc consts  --      0.0218                 0.0405                 0.0285
 IR Inten    --      0.9983                 2.3658                21.9369

                      4                      5                      6
                      A                      A                      A
 Frequencies --    203.1605               229.1747               257.9143
 Red. masses --      1.0675                 1.1934                 1.2057
 Frc consts  --      0.0260                 0.0369                 0.0473
 IR Inten    --      5.4921               106.2716                 4.6931

                      7                      8                      9
                      A                      A                      A
 Frequencies --    330.8356               343.7064               374.6915
 Red. masses --      3.9952                 2.9481                 3.2414
 Frc consts  --      0.2576                 0.2052                 0.2681
 IR Inten    --      5.6790                 3.4111                 2.5692

                     10                     11                     12
                      A                      A                      A
 Frequencies --    439.6718               485.0282               689.8177
 Red. masses --      3.3655                 2.6497                 5.5577
 Frc consts  --      0.3833                 0.3673                 1.5582
 IR Inten    --      6.5942                 6.1308                 0.8757

                     13                     14                     15
                      A                      A                      A
 Frequencies --    830.3392               836.9964               941.7802
 Red. masses --      2.1976                 1.8551                 1.3140
 Frc consts  --      0.8927                 0.7657                 0.6867
 IR Inten    --      7.3888                14.0924                 4.0441

                     16                     17                     18
                      A                      A                      A
 Frequencies --    947.0294               958.1112               965.0298
 Red. masses --      1.6414                 1.4140                 1.2519
 Frc consts  --      0.8674                 0.7648                 0.6869
 IR Inten    --      3.6652                17.7815                36.4959

                     19                     20                     21
                      A                      A                      A
 Frequencies --   1149.0287              1171.0226              1186.2335
 Red. masses --      2.0545                 2.0272                 2.2092
 Frc consts  --      1.5981                 1.6378                 1.8316
 IR Inten    --     24.3262                13.4047                23.4165

                     22                     23                     24
                      A                      A                      A
 Frequencies --   1199.1558              1212.4035              1291.8755
 Red. masses --      2.9102                 1.9298                 2.2293
 Frc consts  --      2.4656                 1.6713                 2.1921
 IR Inten    --    328.0012               146.4753                64.6801

                     25                     26                     27
                      A                      A                      A
 Frequencies --   1345.7638              1363.5401              1374.6023
 Red. masses --      1.2450                 1.3334                 1.2839
 Frc consts  --      1.3284                 1.4606                 1.4294
 IR Inten    --     30.3962                11.0780                 4.8343

                     28                     29                     30
                      A                      A                      A
 Frequencies --   1393.7803              1412.1435              1422.2199
 Red. masses --      1.2159                 1.4049                 1.3204
 Frc consts  --      1.3917                 1.6507                 1.5736
 IR Inten    --      4.9032                21.9643                19.2406

                     31                     32                     33
                      A                      A                      A
 Frequencies --   1483.5060              1492.7223              1497.2834
 Red. masses --      1.0549                 1.0443                 1.0562
 Frc consts  --      1.3679                 1.3710                 1.3951
 IR Inten    --      1.2338                 0.5669                 4.0366

                     34                     35                     36
                      A                      A                      A
 Frequencies --   1517.1962              1771.8435              3039.6145
 Red. masses --      1.0587                 5.5146                 1.0839
 Frc consts  --      1.4358                10.2004                 5.9003
 IR Inten    --      7.9231                20.0058                17.3313

                     37                     38                     39
                      A                      A                      A
 Frequencies --   3068.0073              3071.0134              3138.7227
 Red. masses --      1.0354                 1.0357                 1.1028
 Frc consts  --      5.7420                 5.7551                 6.4010
 IR Inten    --     10.3008                14.7763                 2.5900

                     40                     41                     42
                      A                      A                      A
 Frequencies --   3146.5334              3154.3157              3156.1644
 Red. masses --      1.1020                 1.1029                 1.1014
 Frc consts  --      6.4282                 6.4654                 6.4644
 IR Inten    --     28.4597                14.2742                16.1064

                     43                     44                     45
                      A                      A                      A
 Frequencies --   3203.6581              3219.0081              3879.3827
 Red. masses --      1.0907                 1.0928                 1.0665
 Frc consts  --      6.5953                 6.6719                 9.4568
 IR Inten    --     23.6847                 7.8338                76.0548

 - Thermochemistry -
 -------------------
 Temperature   298.150 Kelvin.  Pressure   1.00000 Atm.
 Atom     1 has atomic number  8 and mass  15.99491

 Molecular mass:   102.06808 amu.
 Principal axes and moments of inertia in atomic units:
                           1         2         3
     Eigenvalues --   296.587681356.124051501.34965
           X            0.99998  -0.00559  -0.00112
           Y            0.00561   0.99988   0.01429
           Z            0.00104  -0.01430   0.99990
 This molecule is an asymmetric top.
 Rotational symmetry number  1.
 Rotational temperatures (Kelvin)      0.29203     0.06387     0.05769
 Rotational constants (GHZ):           6.08502     1.33081     1.20208
 Zero-point vibrational energy     386589.2 (Joules/Mol)
                                   92.39704 (Kcal/Mol)
 Warning -- explicit consideration of  11 degrees of freedom as
           vibrations may cause significant error
 Vibrational temperatures:    145.71   240.64   244.76   292.30   329.73
          (Kelvin)            371.08   476.00   494.52   539.10   632.59
                              697.85   992.49  1194.67  1204.25  1355.01
                             1362.56  1378.51  1388.46  1653.20  1684.84
                             1706.73  1725.32  1744.38  1858.72  1936.25
                             1961.83  1977.75  2005.34  2031.76  2046.26
                             2134.43  2147.69  2154.26  2182.91  2549.29
                             4373.33  4414.18  4418.50  4515.92  4527.16
                             4538.36  4541.02  4609.35  4631.43  5581.57

 Zero-point correction=                           0.147244 (Hartree/Particle)
 Thermal correction to Energy=                    0.155776
 Thermal correction to Enthalpy=                  0.156720
 Thermal correction to Gibbs Free Energy=         0.114788
 Sum of electronic and zero-point Energies=           -346.793109
 Sum of electronic and thermal Energies=              -346.784576
 Sum of electronic and thermal Enthalpies=            -346.783632
 Sum of electronic and thermal Free Energies=         -346.825564

                     E (Thermal)             CV                S
                      KCal/Mol        Cal/Mol-Kelvin    Cal/Mol-Kelvin
 Total                   97.751             30.450             88.254
 Electronic               0.000              0.000              0.000
 Translational            0.889              2.981             39.779
 Rotational               0.889              2.981             27.892
 Vibrational             95.974             24.489             20.582
 Vibration     1          0.604              1.948              3.430
 Vibration     2          0.624              1.883              2.466
 Vibration     3          0.625              1.879              2.434
 Vibration     4          0.639              1.835              2.104
 Vibration     5          0.652              1.796              1.885
 Vibration     6          0.667              1.749              1.676
 Vibration     7          0.713              1.614              1.256
 Vibration     8          0.722              1.588              1.195
 Vibration     9          0.746              1.524              1.061
 Vibration    10          0.800              1.384              0.828
 Vibration    11          0.841              1.283              0.697

 Optimization completed.
    -- Stationary point found.
 Normal termination of Gaussian 16 at Fri Sep 27 01:25:09 2019.
