 Gaussian 16, Revision A.03,
 Gaussian 16:  EM64L-G16RevA.03 25-Dec-2016

 ----------------------------------------------------------------------
 #p m062x/cc-pVTZ opt=(calcfc,maxcycles=900,Tight) freq IOP(7/33=1,2/16
 =3) scf=(maxcycle=900)
 ----------------------------------------------------------------------

 ------------------------------
 Gaussian input prepared by ASE
 ------------------------------
 Symbolic Z-matrix:
 Charge =  0 Multiplicity = 1

 SCF Done:  E(RM062X) =  -346.921654818     A.U. after   13 cycles
 SCF Done:  E(RM062X) =  -346.932258006     A.U. after   13 cycles
 SCF Done:  E(RM062X) =  -346.902032706     A.U. after   13 cycles
 SCF Done:  E(RM062X) =  -346.933843356     A.U. after   12 cycles
 SCF Done:  E(RM062X) =  -346.935077970     A.U. after   11 cycles
 SCF Done:  E(RM062X) =  -346.937553292     A.U. after   11 cycles
 SCF Done:  E(RM062X) =  -346.938830152     A.U. after   11 cycles
 SCF Done:  E(RM062X) =  -346.935165487     A.U. after   12 cycles
 SCF Done:  E(RM062X) =  -346.938193151     A.U. after   11 cycles
 SCF Done:  E(RM062X) =  -346.938875152     A.U. after    7 cycles
 SCF Done:  E(RM062X) =  -346.939060257     A.U. after   10 cycles
 SCF Done:  E(RM062X) =  -346.939095495     A.U. after    9 cycles
 SCF Done:  E(RM062X) =  -346.939140731     A.U. after    9 cycles
 SCF Done:  E(RM062X) =  -346.939179562     A.U. after   10 cycles
 SCF Done:  E(RM062X) =  -346.939183346     A.U. after    8 cycles
 SCF Done:  E(RM062X) =  -346.939184641     A.U. after    8 cycles
 SCF Done:  E(RM062X) =  -346.939184721     A.U. after    6 cycles
 SCF Done:  E(RM062X) =  -346.939184733     A.U. after    5 cycles
 SCF Done:  E(RM062X) =  -346.939184734     A.U. after    5 cycles
 Optimization completed.
    -- Stationary point found.
 Normal termination of Gaussian 16 at Fri Sep 27 10:24:04 2019.

 ----------------------------------------------------------------------
 #P Geom=AllCheck Guess=TCheck SCRF=Check Test GenChk RM062X/CC-pVTZ Fr
 eq
 ----------------------------------------------------------------------

 Structure from the checkpoint file:  "/scratch/harms.n/gauss_scrdir/Gau-1081.chk"
 ------------------------------
 Gaussian input prepared by ASE
 ------------------------------
 Charge =  0 Multiplicity = 1

                         Standard orientation:
 ---------------------------------------------------------------------
 Center     Atomic      Atomic             Coordinates (Angstroms)
 Number     Number       Type             X           Y           Z
 ---------------------------------------------------------------------
      1          8           0        0.152886   -0.460837    0.899136
      2          8           0       -2.302949    0.623460    0.132558
      3          6           0        1.301734    0.257153    0.427257
      4          6           0        0.879325    1.513757   -0.313150
      5          6           0        2.216549   -0.626716   -0.404609
      6          6           0       -0.635905   -1.029685   -0.058570
      7          6           0       -1.821002   -0.537846   -0.391803
      8          1           0        1.814534    0.534151    1.348541
      9          1           0        0.343337    1.252145   -1.226775
     10          1           0        0.219568    2.114286    0.310042
     11          1           0        1.754354    2.104754   -0.584765
     12          1           0        1.757795   -0.870535   -1.363837
     13          1           0        2.440194   -1.552909    0.124145
     14          1           0        3.152987   -0.106713   -0.604827
     15          1           0       -0.292137   -1.951623   -0.513047
     16          1           0       -2.444708   -1.064162   -1.102897
     17          1           0       -3.189629    0.779642   -0.194876
 ---------------------------------------------------------------------

 SCF Done:  E(RM062X) =  -346.939184734     A.U. after    1 cycles

 The electronic state is 1-A.
 Alpha  occ. eigenvalues --  -19.64898 -19.62359 -10.58600 -10.58563 -10.56816
 Alpha  occ. eigenvalues --  -10.52292 -10.51550  -1.18341  -1.15792  -0.88544
 Alpha  occ. eigenvalues --   -0.83481  -0.77989  -0.70271  -0.64902  -0.60425
 Alpha  occ. eigenvalues --   -0.56012  -0.54960  -0.53409  -0.48198  -0.47792
 Alpha  occ. eigenvalues --   -0.46895  -0.44497  -0.43905  -0.43209  -0.41167
 Alpha  occ. eigenvalues --   -0.38223  -0.33670  -0.27509
 Alpha virt. eigenvalues --    0.05364   0.07068   0.08626   0.09845   0.11898
 Alpha virt. eigenvalues --    0.12397   0.13329   0.15187   0.15796   0.16975
 Alpha virt. eigenvalues --    0.17908   0.18452   0.20744   0.23405   0.26288

 Mulliken charges:
               1
     1  O   -0.275002
     2  O   -0.306680
     3  C    0.053543
     4  C   -0.396926
     5  C   -0.397939
     6  C   -0.090003
     7  C    0.002017
     8  H    0.142619
     9  H    0.128251
    10  H    0.148044
    11  H    0.120438
    12  H    0.120532
    13  H    0.136250
    14  H    0.123744
    15  H    0.130929
    16  H    0.107454
    17  H    0.252728
 Sum of Mulliken charges =  -0.00000

 Dipole moment (field-independent basis, Debye):
    X=             -0.8132    Y=              0.0756    Z=             -2.0412  Tot=              2.1986
 Quadrupole moment (field-independent basis, Debye-Ang):
   XX=            -32.8274   YY=            -43.3824   ZZ=            -45.8277
   XY=             -0.1195   XZ=              4.0531   YZ=              1.5120

  Exact polarizability:  83.630  -3.114  65.101   4.289   2.011  54.593
 Approx polarizability:  90.423  -5.144  75.527   5.916   1.728  70.528

                      1                      2                      3
                      A                      A                      A
 Frequencies --     44.9258                83.1865               206.8792
 Red. masses --      3.9298                 2.9919                 1.3425
 Frc consts  --      0.0047                 0.0122                 0.0339
 IR Inten    --      0.5196                 4.2197                92.1483

                      4                      5                      6
                      A                      A                      A
 Frequencies --    216.6370               242.9888               253.1486
 Red. masses --      1.4473                 1.9893                 2.1109
 Frc consts  --      0.0400                 0.0692                 0.0797
 IR Inten    --     15.2224                 0.5748                 2.3923

                      7                      8                      9
                      A                      A                      A
 Frequencies --    269.9445               361.3360               425.7275
 Red. masses --      1.1261                 2.1756                 3.3842
 Frc consts  --      0.0483                 0.1674                 0.3614
 IR Inten    --      1.1253                 0.4368                 7.1989

                     10                     11                     12
                      A                      A                      A
 Frequencies --    483.7827               622.5723               729.3352
 Red. masses --      2.4896                 2.3653                 3.7290
 Frc consts  --      0.3433                 0.5401                 1.1687
 IR Inten    --      1.8501                 2.6492                37.8810

                     13                     14                     15
                      A                      A                      A
 Frequencies --    803.2287               840.0295               925.7801
 Red. masses --      1.5919                 2.8872                 1.3081
 Frc consts  --      0.6051                 1.2004                 0.6605
 IR Inten    --     61.6515                 5.2603                 4.4554

                     16                     17                     18
                      A                      A                      A
 Frequencies --    930.1817               944.1155               963.8475
 Red. masses --      1.2142                 1.4101                 2.7378
 Frc consts  --      0.6190                 0.7406                 1.4986
 IR Inten    --      0.7734                 0.5932                15.5502

                     19                     20                     21
                      A                      A                      A
 Frequencies --   1056.3546              1137.3768              1159.9300
 Red. masses --      2.6478                 1.9864                 2.0742
 Frc consts  --      1.7408                 1.5140                 1.6442
 IR Inten    --     18.6831                43.4260                12.5115

                     22                     23                     24
                      A                      A                      A
 Frequencies --   1199.0699              1204.5836              1263.0708
 Red. masses --      2.9403                 2.0344                 1.1667
 Frc consts  --      2.4907                 1.7393                 1.0966
 IR Inten    --    218.6712                 9.1406                78.4856

                     25                     26                     27
                      A                      A                      A
 Frequencies --   1318.1548              1368.3827              1388.6828
 Red. masses --      1.4426                 1.2879                 1.1957
 Frc consts  --      1.4768                 1.4209                 1.3585
 IR Inten    --     98.8674                 0.9596                 4.3217

                     28                     29                     30
                      A                      A                      A
 Frequencies --   1403.9487              1416.1418              1444.4804
 Red. masses --      1.4234                 1.2733                 1.5055
 Frc consts  --      1.6530                 1.5045                 1.8508
 IR Inten    --     28.2977                23.6215                37.5585

                     31                     32                     33
                      A                      A                      A
 Frequencies --   1481.7170              1491.5456              1496.9661
 Red. masses --      1.0489                 1.0526                 1.0473
 Frc consts  --      1.3568                 1.3797                 1.3827
 IR Inten    --      1.3588                 0.7690                 7.9140

                     34                     35                     36
                      A                      A                      A
 Frequencies --   1513.7542              1795.6967              3062.2355
 Red. masses --      1.0685                 5.9474                 1.0350
 Frc consts  --      1.4426                11.2991                 5.7180
 IR Inten    --      7.9128                30.4512                12.2336

                     37                     38                     39
                      A                      A                      A
 Frequencies --   3065.2241              3091.0966              3132.2787
 Red. masses --      1.0362                 1.0862                 1.1019
 Frc consts  --      5.7358                 6.1148                 6.3696
 IR Inten    --      9.2109                14.7298                 2.8718

                     40                     41                     42
                      A                      A                      A
 Frequencies --   3140.2049              3144.0237              3154.0783
 Red. masses --      1.1010                 1.1025                 1.1026
 Frc consts  --      6.3967                 6.4209                 6.4624
 IR Inten    --     46.5282                21.5802                12.1736

                     43                     44                     45
                      A                      A                      A
 Frequencies --   3179.6337              3211.2942              3924.4476
 Red. masses --      1.0851                 1.0993                 1.0670
 Frc consts  --      6.4636                 6.6792                 9.6817
 IR Inten    --      7.4463                20.5463               119.8744

 - Thermochemistry -
 -------------------
 Temperature   298.150 Kelvin.  Pressure   1.00000 Atm.
 Atom     1 has atomic number  8 and mass  15.99491

 Molecular mass:   102.06808 amu.
 Principal axes and moments of inertia in atomic units:
                           1         2         3
     Eigenvalues --   379.597101028.550651209.49662
           X            0.99999   0.00346   0.00149
           Y           -0.00350   0.99947   0.03221
           Z           -0.00138  -0.03222   0.99948
 This molecule is an asymmetric top.
 Rotational symmetry number  1.
 Rotational temperatures (Kelvin)      0.22817     0.08421     0.07161
 Rotational constants (GHZ):           4.75436     1.75464     1.49214
 Zero-point vibrational energy     386346.1 (Joules/Mol)
                                   92.33893 (Kcal/Mol)
 Warning -- explicit consideration of  10 degrees of freedom as
           vibrations may cause significant error
 Vibrational temperatures:     64.64   119.69   297.65   311.69   349.61
          (Kelvin)            364.22   388.39   519.88   612.53   696.06
                              895.74  1049.35  1155.67  1208.62  1331.99
                             1338.32  1358.37  1386.76  1519.86  1636.43
                             1668.88  1725.19  1733.13  1817.28  1896.53
                             1968.80  1998.00  2019.97  2037.51  2078.29
                             2131.86  2146.00  2153.80  2177.95  2583.61
                             4405.87  4410.17  4447.40  4506.65  4518.05
                             4523.55  4538.02  4574.78  4620.34  5646.40

 Zero-point correction=                           0.147151 (Hartree/Particle)
 Thermal correction to Energy=                    0.155755
 Thermal correction to Enthalpy=                  0.156699
 Thermal correction to Gibbs Free Energy=         0.113889
 Sum of electronic and zero-point Energies=           -346.792033
 Sum of electronic and thermal Energies=              -346.783430
 Sum of electronic and thermal Enthalpies=            -346.782485
 Sum of electronic and thermal Free Energies=         -346.825296

                     E (Thermal)             CV                S
                      KCal/Mol        Cal/Mol-Kelvin    Cal/Mol-Kelvin
 Total                   97.738             30.207             90.102
 Electronic               0.000              0.000              0.000
 Translational            0.889              2.981             39.779
 Rotational               0.889              2.981             27.648
 Vibrational             95.960             24.246             22.675
 Vibration     1          0.595              1.979              5.029
 Vibration     2          0.600              1.961              3.814
 Vibration     3          0.641              1.830              2.071
 Vibration     4          0.645              1.816              1.987
 Vibration     5          0.659              1.774              1.781
 Vibration     6          0.664              1.757              1.709
 Vibration     7          0.674              1.729              1.597
 Vibration     8          0.736              1.552              1.116
 Vibration     9          0.788              1.414              0.873
 Vibration    10          0.840              1.286              0.700

 Optimization completed.
    -- Stationary point found.
 Normal termination of Gaussian 16 at Fri Sep 27 12:16:35 2019.
