 Gaussian 16, Revision A.03,
 Gaussian 16:  EM64L-G16RevA.03 25-Dec-2016

 ----------------------------------------------------------------------
 #p m062x/cc-pVTZ opt=(calcfc,maxcycles=900,Tight) freq IOP(7/33=1,2/16
 =3) scf=(maxcycle=900)
 ----------------------------------------------------------------------

 ------------------------------
 Gaussian input prepared by ASE
 ------------------------------
 Symbolic Z-matrix:
 Charge =  0 Multiplicity = 1

 SCF Done:  E(RM062X) =  -346.915845912     A.U. after   13 cycles
 SCF Done:  E(RM062X) =  -346.931218996     A.U. after   13 cycles
 SCF Done:  E(RM062X) =  -346.928739368     A.U. after   12 cycles
 SCF Done:  E(RM062X) =  -346.936293550     A.U. after   12 cycles
 SCF Done:  E(RM062X) =  -346.905019382     A.U. after   13 cycles
 SCF Done:  E(RM062X) =  -346.938441627     A.U. after   12 cycles
 SCF Done:  E(RM062X) =  -346.939265854     A.U. after   12 cycles
 SCF Done:  E(RM062X) =  -346.939454263     A.U. after   10 cycles
 SCF Done:  E(RM062X) =  -346.939557996     A.U. after   10 cycles
 SCF Done:  E(RM062X) =  -346.939690510     A.U. after   11 cycles
 SCF Done:  E(RM062X) =  -346.939725400     A.U. after    7 cycles
 SCF Done:  E(RM062X) =  -346.939725403     A.U. after    5 cycles
 SCF Done:  E(RM062X) =  -346.939725402     A.U. after    3 cycles
 SCF Done:  E(RM062X) =  -346.939725403     A.U. after    4 cycles
 SCF Done:  E(RM062X) =  -346.939725403     A.U. after    5 cycles
 SCF Done:  E(RM062X) =  -346.939725403     A.U. after    3 cycles
 SCF Done:  E(RM062X) =  -346.939725403     A.U. after    3 cycles
 SCF Done:  E(RM062X) =  -346.939725403     A.U. after    4 cycles
 SCF Done:  E(RM062X) =  -346.939725403     A.U. after    4 cycles
 Optimization completed.
    -- Stationary point found.
 Normal termination of Gaussian 16 at Sun Sep 29 15:51:50 2019.

 ----------------------------------------------------------------------
 #P Geom=AllCheck Guess=TCheck SCRF=Check Test GenChk RM062X/CC-pVTZ Fr
 eq
 ----------------------------------------------------------------------

 Structure from the checkpoint file:  "/scratch/harms.n/gauss_scrdir/Gau-14835.chk"
 ------------------------------
 Gaussian input prepared by ASE
 ------------------------------
 Charge =  0 Multiplicity = 1

                         Standard orientation:
 ---------------------------------------------------------------------
 Center     Atomic      Atomic             Coordinates (Angstroms)
 Number     Number       Type             X           Y           Z
 ---------------------------------------------------------------------
      1          8           0        0.305923   -0.181102   -1.017029
      2          8           0       -3.006564   -0.005267    0.451551
      3          6           0        1.539639    0.105970   -0.344125
      4          6           0        2.009320   -1.063922    0.505646
      5          6           0        1.437373    1.393815    0.453191
      6          6           0       -0.760196   -0.490774   -0.216946
      7          6           0       -1.851991    0.261064   -0.217977
      8          1           0        2.239471    0.246117   -1.168116
      9          1           0        1.390020   -1.181839    1.395684
     10          1           0        1.982642   -1.989379   -0.068873
     11          1           0        3.032906   -0.891199    0.836794
     12          1           0        0.736108    1.278903    1.280247
     13          1           0        1.090772    2.207724   -0.182436
     14          1           0        2.411423    1.660376    0.863333
     15          1           0       -0.699346   -1.412381    0.358118
     16          1           0       -1.906740    1.170889   -0.799019
     17          1           0       -2.916997   -0.835176    0.929359
 ---------------------------------------------------------------------

 SCF Done:  E(RM062X) =  -346.939725403     A.U. after    1 cycles

 The electronic state is 1-A.
 Alpha  occ. eigenvalues --  -19.65023 -19.63310 -10.59275 -10.58733 -10.57395
 Alpha  occ. eigenvalues --  -10.53022 -10.52521  -1.18290  -1.16823  -0.89295
 Alpha  occ. eigenvalues --   -0.83192  -0.78828  -0.71655  -0.66496  -0.59984
 Alpha  occ. eigenvalues --   -0.56710  -0.55840  -0.51466  -0.50080  -0.47904
 Alpha  occ. eigenvalues --   -0.47199  -0.45775  -0.44760  -0.43895  -0.41919
 Alpha  occ. eigenvalues --   -0.39146  -0.35138  -0.27391
 Alpha virt. eigenvalues --    0.06073   0.06560   0.07574   0.09633   0.10911
 Alpha virt. eigenvalues --    0.12020   0.13610   0.14900   0.15126   0.16525
 Alpha virt. eigenvalues --    0.17664   0.17816   0.19899   0.24238   0.26141

 Mulliken charges:
               1
     1  O   -0.276518
     2  O   -0.337309
     3  C    0.043516
     4  C   -0.398992
     5  C   -0.388000
     6  C   -0.111915
     7  C    0.013720
     8  H    0.146840
     9  H    0.118231
    10  H    0.139817
    11  H    0.126848
    12  H    0.129932
    13  H    0.134639
    14  H    0.122969
    15  H    0.115238
    16  H    0.169203
    17  H    0.251781
 Sum of Mulliken charges =  -0.00000

 Dipole moment (field-independent basis, Debye):
    X=              1.3064    Y=             -0.7757    Z=              1.5112  Tot=              2.1429
 Quadrupole moment (field-independent basis, Debye-Ang):
   XX=            -44.3592   YY=            -41.4193   ZZ=            -45.3580
   XY=              3.0762   XZ=             -1.2380   YZ=             -3.1546

  Exact polarizability:  84.313  -3.816  64.728  -1.448  -3.011  55.023
 Approx polarizability:  91.142  -6.109  75.878  -3.420  -3.251  69.959

                      1                      2                      3
                      A                      A                      A
 Frequencies --     50.4485                75.6871               181.9014
 Red. masses --      2.3470                 3.2394                 2.1297
 Frc consts  --      0.0035                 0.0109                 0.0415
 IR Inten    --      3.0694                 2.2106                10.5800

                      4                      5                      6
                      A                      A                      A
 Frequencies --    228.8278               266.6019               309.9259
 Red. masses --      1.1095                 1.0670                 2.4813
 Frc consts  --      0.0342                 0.0447                 0.1404
 IR Inten    --      1.0287                 0.5347                15.7169

                      7                      8                      9
                      A                      A                      A
 Frequencies --    331.6332               383.7717               410.3901
 Red. masses --      2.6258                 1.6380                 2.2252
 Frc consts  --      0.1701                 0.1421                 0.2208
 IR Inten    --      1.7881                31.6739                25.7909

                     10                     11                     12
                      A                      A                      A
 Frequencies --    440.2331               540.4514               599.3089
 Red. masses --      3.1966                 3.2331                 3.2017
 Frc consts  --      0.3650                 0.5564                 0.6775
 IR Inten    --     26.3909                 2.0679                10.5288

                     13                     14                     15
                      A                      A                      A
 Frequencies --    830.2493               866.0040               928.6770
 Red. masses --      2.8044                 1.9275                 1.1941
 Frc consts  --      1.1389                 0.8517                 0.6068
 IR Inten    --      7.6445                22.0095                 0.4019

                     16                     17                     18
                      A                      A                      A
 Frequencies --    942.7520               957.6979               976.6993
 Red. masses --      1.4061                 1.2772                 2.0469
 Frc consts  --      0.7363                 0.6902                 1.1504
 IR Inten    --      0.4351                29.6338                42.7346

                     19                     20                     21
                      A                      A                      A
 Frequencies --   1110.4158              1154.6818              1159.4939
 Red. masses --      2.0431                 1.9842                 2.0511
 Frc consts  --      1.4842                 1.5587                 1.6247
 IR Inten    --     43.5466               124.1056                22.7870

                     22                     23                     24
                      A                      A                      A
 Frequencies --   1204.2122              1223.4172              1280.6791
 Red. masses --      2.0228                 4.5812                 1.8746
 Frc consts  --      1.7282                 4.0400                 1.8115
 IR Inten    --      9.5146               341.5728                24.2962

                     25                     26                     27
                      A                      A                      A
 Frequencies --   1327.3596              1369.1954              1380.6830
 Red. masses --      1.1823                 1.2824                 1.2294
 Frc consts  --      1.2273                 1.4165                 1.3808
 IR Inten    --      0.5476                 1.1612                37.9526

                     28                     29                     30
                      A                      A                      A
 Frequencies --   1403.5743              1408.0401              1419.0808
 Red. masses --      1.4186                 1.3110                 1.3080
 Frc consts  --      1.6466                 1.5314                 1.5519
 IR Inten    --     28.3556                30.5907                22.8598

                     31                     32                     33
                      A                      A                      A
 Frequencies --   1484.1830              1490.4812              1500.2994
 Red. masses --      1.0506                 1.0502                 1.0476
 Frc consts  --      1.3636                 1.3747                 1.3894
 IR Inten    --      0.9334                 1.6740                 6.6068

                     34                     35                     36
                      A                      A                      A
 Frequencies --   1513.8793              1774.4604              3063.4767
 Red. masses --      1.0612                 5.9609                 1.0350
 Frc consts  --      1.4329                11.0585                 5.7228
 IR Inten    --      6.6923                22.7054                12.9136

                     37                     38                     39
                      A                      A                      A
 Frequencies --   3066.4216              3090.7973              3132.9689
 Red. masses --      1.0358                 1.0863                 1.0975
 Frc consts  --      5.7382                 6.1142                 6.3472
 IR Inten    --      6.2079                15.4083                 9.1545

                     40                     41                     42
                      A                      A                      A
 Frequencies --   3139.3851              3143.6496              3145.1684
 Red. masses --      1.0959                 1.1000                 1.1022
 Frc consts  --      6.3637                 6.4050                 6.4240
 IR Inten    --      7.2177                52.9996                25.5564

                     43                     44                     45
                      A                      A                      A
 Frequencies --   3146.5425              3231.7301              3865.1910
 Red. masses --      1.1023                 1.0936                 1.0655
 Frc consts  --      6.4300                 6.7294                 9.3788
 IR Inten    --     19.0480                 5.5824                47.5560

 - Thermochemistry -
 -------------------
 Temperature   298.150 Kelvin.  Pressure   1.00000 Atm.
 Atom     1 has atomic number  8 and mass  15.99491

 Molecular mass:   102.06808 amu.
 Principal axes and moments of inertia in atomic units:
                           1         2         3
     Eigenvalues --   345.765831327.208991417.97426
           X            0.99993   0.00395   0.01081
           Y           -0.00306   0.99668  -0.08133
           Z           -0.01110   0.08129   0.99663
 This molecule is an asymmetric top.
 Rotational symmetry number  1.
 Rotational temperatures (Kelvin)      0.25050     0.06526     0.06108
 Rotational constants (GHZ):           5.21955     1.35980     1.27276
 Zero-point vibrational energy     386099.1 (Joules/Mol)
                                   92.27990 (Kcal/Mol)
 Warning -- explicit consideration of  12 degrees of freedom as
           vibrations may cause significant error
 Vibrational temperatures:     72.58   108.90   261.72   329.23   383.58
          (Kelvin)            445.91   477.15   552.16   590.46   633.40
                              777.59   862.27  1194.54  1245.99  1336.16
                             1356.41  1377.91  1405.25  1597.64  1661.33
                             1668.25  1732.59  1760.22  1842.61  1909.77
                             1969.97  1986.49  2019.43  2025.86  2041.74
                             2135.41  2144.47  2158.60  2178.13  2553.05
                             4407.66  4411.90  4446.97  4507.64  4516.88
                             4523.01  4525.20  4527.17  4649.74  5561.15

 Zero-point correction=                           0.147057 (Hartree/Particle)
 Thermal correction to Energy=                    0.155606
 Thermal correction to Enthalpy=                  0.156550
 Thermal correction to Gibbs Free Energy=         0.113789
 Sum of electronic and zero-point Energies=           -346.792668
 Sum of electronic and thermal Energies=              -346.784120
 Sum of electronic and thermal Enthalpies=            -346.783175
 Sum of electronic and thermal Free Energies=         -346.825937

                     E (Thermal)             CV                S
                      KCal/Mol        Cal/Mol-Kelvin    Cal/Mol-Kelvin
 Total                   97.644             30.276             89.999
 Electronic               0.000              0.000              0.000
 Translational            0.889              2.981             39.779
 Rotational               0.889              2.981             27.967
 Vibrational             95.867             24.315             22.253
 Vibration     1          0.595              1.977              4.800
 Vibration     2          0.599              1.965              4.000
 Vibration     3          0.630              1.864              2.309
 Vibration     4          0.652              1.797              1.888
 Vibration     5          0.672              1.734              1.618
 Vibration     6          0.699              1.655              1.363
 Vibration     7          0.714              1.612              1.252
 Vibration     8          0.753              1.505              1.024
 Vibration     9          0.775              1.448              0.925
 Vibration    10          0.800              1.382              0.826
 Vibration    11          0.896              1.161              0.564
 Vibration    12          0.957              1.033              0.451

                           ! Non-Optimized Parameters !
 Normal termination of Gaussian 16 at Sun Sep 29 17:12:29 2019.
