 Gaussian 16, Revision A.03,
 Gaussian 16:  EM64L-G16RevA.03 25-Dec-2016

 ----------------------------------------------------------------------
 #p m062x/cc-pVTZ opt=(calcfc,maxcycles=900,Tight) freq IOP(7/33=1,2/16
 =3) scf=(maxcycle=900)
 ----------------------------------------------------------------------

 ------------------------------
 Gaussian input prepared by ASE
 ------------------------------
 Symbolic Z-matrix:
 Charge =  0 Multiplicity = 1

 SCF Done:  E(RM062X) =  -346.920522423     A.U. after   13 cycles
 SCF Done:  E(RM062X) =  -346.923922394     A.U. after   12 cycles
 SCF Done:  E(RM062X) =  -346.937142987     A.U. after   12 cycles
 SCF Done:  E(RM062X) =  -346.938617103     A.U. after   12 cycles
 SCF Done:  E(RM062X) =  -346.933866792     A.U. after   14 cycles
 SCF Done:  E(RM062X) =  -346.940598254     A.U. after   12 cycles
 SCF Done:  E(RM062X) =  -346.940256682     A.U. after   12 cycles
 SCF Done:  E(RM062X) =  -346.941632523     A.U. after   12 cycles
 SCF Done:  E(RM062X) =  -346.942091692     A.U. after   11 cycles
 SCF Done:  E(RM062X) =  -346.942515775     A.U. after   12 cycles
 SCF Done:  E(RM062X) =  -346.947432343     A.U. after    4 cycles
 SCF Done:  E(RM062X) =  -346.947432343     A.U. after    3 cycles
 SCF Done:  E(RM062X) =  -346.947432343     A.U. after    3 cycles
 SCF Done:  E(RM062X) =  -346.947432343     A.U. after    3 cycles
 SCF Done:  E(RM062X) =  -346.947432343     A.U. after    4 cycles
 SCF Done:  E(RM062X) =  -346.947432343     A.U. after    3 cycles
 SCF Done:  E(RM062X) =  -346.947432343     A.U. after    3 cycles
 SCF Done:  E(RM062X) =  -346.947432343     A.U. after    3 cycles
 SCF Done:  E(RM062X) =  -346.947432343     A.U. after    3 cycles
 Optimization completed.
    -- Stationary point found.
 Normal termination of Gaussian 16 at Fri Sep 27 17:00:50 2019.

 ----------------------------------------------------------------------
 #P Geom=AllCheck Guess=TCheck SCRF=Check Test GenChk RM062X/CC-pVTZ Fr
 eq
 ----------------------------------------------------------------------

 Structure from the checkpoint file:  "/scratch/harms.n/gauss_scrdir/Gau-28794.chk"
 ------------------------------
 Gaussian input prepared by ASE
 ------------------------------
 Charge =  0 Multiplicity = 1

                         Standard orientation:
 ---------------------------------------------------------------------
 Center     Atomic      Atomic             Coordinates (Angstroms)
 Number     Number       Type             X           Y           Z
 ---------------------------------------------------------------------
      1          8           0        0.046916   -0.347405   -0.829442
      2          8           0       -2.448727    0.582138   -0.162567
      3          6           0        1.287649    0.258385   -0.430638
      4          6           0        2.225020   -0.749191    0.213154
      5          6           0        1.032985    1.462022    0.459363
      6          6           0       -0.680646   -0.950605    0.170345
      7          6           0       -1.895719   -0.495192    0.445725
      8          1           0        1.716914    0.587414   -1.377124
      9          1           0        1.880171   -1.030626    1.208543
     10          1           0        2.302950   -1.645738   -0.400903
     11          1           0        3.217895   -0.312734    0.316782
     12          1           0        0.546986    1.151685    1.385160
     13          1           0        0.390541    2.184940   -0.042528
     14          1           0        1.973011    1.952333    0.711901
     15          1           0       -0.265958   -1.823761    0.653852
     16          1           0       -2.542598   -0.967720    1.168971
     17          1           0       -1.821157    0.873827   -0.836279
 ---------------------------------------------------------------------

 SCF Done:  E(RM062X) =  -346.947432343     A.U. after    1 cycles

 The electronic state is 1-A.
 Alpha  occ. eigenvalues --  -19.64317 -19.64116 -10.59841 -10.58586 -10.57114
 Alpha  occ. eigenvalues --  -10.53282 -10.53006  -1.18911  -1.16245  -0.89581
 Alpha  occ. eigenvalues --   -0.83363  -0.79215  -0.71773  -0.65429  -0.60326
 Alpha  occ. eigenvalues --   -0.57341  -0.56276  -0.51782  -0.50274  -0.48114
 Alpha  occ. eigenvalues --   -0.47083  -0.45724  -0.44535  -0.44240  -0.42415
 Alpha  occ. eigenvalues --   -0.39483  -0.35966  -0.27457
 Alpha virt. eigenvalues --    0.05890   0.07754   0.08322   0.10159   0.11355
 Alpha virt. eigenvalues --    0.11591   0.12691   0.14520   0.15235   0.15900
 Alpha virt. eigenvalues --    0.17442   0.19481   0.19542   0.21559   0.24971

 Mulliken charges:
               1
     1  O   -0.307465
     2  O   -0.350053
     3  C    0.043608
     4  C   -0.398240
     5  C   -0.395465
     6  C   -0.100434
     7  C    0.013346
     8  H    0.149145
     9  H    0.122603
    10  H    0.141363
    11  H    0.127473
    12  H    0.139492
    13  H    0.134859
    14  H    0.127066
    15  H    0.130581
    16  H    0.153865
    17  H    0.268256
 Sum of Mulliken charges =   0.00000

 Dipole moment (field-independent basis, Debye):
    X=              2.0548    Y=              0.0494    Z=              0.6359  Tot=              2.1515
 Quadrupole moment (field-independent basis, Debye-Ang):
   XX=            -45.3997   YY=            -42.7149   ZZ=            -43.7902
   XY=              1.9350   XZ=             -1.1052   YZ=             -3.1272

  Exact polarizability:  82.101  -2.415  63.990  -3.484  -2.711  55.303
 Approx polarizability:  90.346  -4.672  74.702  -4.695  -3.241  71.234

                      1                      2                      3
                      A                      A                      A
 Frequencies --     27.8317                81.4803               219.2320
 Red. masses --      3.9028                 3.1757                 1.4420
 Frc consts  --      0.0018                 0.0124                 0.0408
 IR Inten    --      0.5371                 1.1328                 1.7831

                      4                      5                      6
                      A                      A                      A
 Frequencies --    232.7888               253.2416               275.2607
 Red. masses --      2.3246                 1.7716                 1.3052
 Frc consts  --      0.0742                 0.0669                 0.0583
 IR Inten    --      2.8547                 0.5847                 0.6931

                      7                      8                      9
                      A                      A                      A
 Frequencies --    362.3653               428.8123               477.4949
 Red. masses --      2.1423                 2.9599                 2.1105
 Frc consts  --      0.1657                 0.3207                 0.2835
 IR Inten    --      0.2921                13.6347                12.9029

                     10                     11                     12
                      A                      A                      A
 Frequencies --    549.3591               626.3799               727.1356
 Red. masses --      1.3125                 2.4222                 3.5512
 Frc consts  --      0.2334                 0.5599                 1.1063
 IR Inten    --     96.8681                10.3693                21.5529

                     13                     14                     15
                      A                      A                      A
 Frequencies --    798.1642               848.1156               929.4748
 Red. masses --      1.4504                 3.0208                 1.1913
 Frc consts  --      0.5444                 1.2802                 0.6064
 IR Inten    --     42.0916                 1.7599                 1.9850

                     16                     17                     18
                      A                      A                      A
 Frequencies --    935.7408               944.6374               973.8987
 Red. masses --      1.3074                 1.4205                 2.7039
 Frc consts  --      0.6745                 0.7468                 1.5110
 IR Inten    --      5.5990                 0.4131                13.8691

                     19                     20                     21
                      A                      A                      A
 Frequencies --   1061.6263              1129.4655              1160.3669
 Red. masses --      2.6326                 2.2618                 2.0710
 Frc consts  --      1.7481                 1.7000                 1.6429
 IR Inten    --     30.2378               141.6810                 8.0769

                     22                     23                     24
                      A                      A                      A
 Frequencies --   1187.4840              1204.8893              1244.9605
 Red. masses --      2.1967                 2.0457                 1.3727
 Frc consts  --      1.8250                 1.7498                 1.2536
 IR Inten    --    204.4017                 7.9611                70.3728

                     25                     26                     27
                      A                      A                      A
 Frequencies --   1366.9005              1370.3859              1386.5579
 Red. masses --      1.3833                 1.3566                 1.2099
 Frc consts  --      1.5228                 1.5011                 1.3705
 IR Inten    --      1.0413                 3.5089                12.3001

                     28                     29                     30
                      A                      A                      A
 Frequencies --   1406.3343              1416.6558              1434.1575
 Red. masses --      1.4298                 1.2715                 1.4307
 Frc consts  --      1.6661                 1.5035                 1.7337
 IR Inten    --     33.1395                28.4147                35.6075

                     31                     32                     33
                      A                      A                      A
 Frequencies --   1485.1122              1491.0677              1500.0015
 Red. masses --      1.0460                 1.0545                 1.0469
 Frc consts  --      1.3593                 1.3813                 1.3879
 IR Inten    --      0.6911                 1.1405                 9.7276

                     34                     35                     36
                      A                      A                      A
 Frequencies --   1513.9465              1767.0494              3063.8725
 Red. masses --      1.0651                 6.1691                 1.0347
 Frc consts  --      1.4383                11.3494                 5.7227
 IR Inten    --      6.2636                63.0480                12.3674

                     37                     38                     39
                      A                      A                      A
 Frequencies --   3067.4775              3090.6652              3137.2317
 Red. masses --      1.0358                 1.0865                 1.1023
 Frc consts  --      5.7423                 6.1147                 6.3922
 IR Inten    --      6.0261                15.0805                 2.0818

                     40                     41                     42
                      A                      A                      A
 Frequencies --   3142.5749              3144.4583              3147.7642
 Red. masses --      1.1028                 1.1011                 1.1029
 Frc consts  --      6.4169                 6.4144                 6.4387
 IR Inten    --     15.3349                38.6542                17.9125

                     43                     44                     45
                      A                      A                      A
 Frequencies --   3216.5934              3252.5569              3812.5521
 Red. masses --      1.0877                 1.0999                 1.0643
 Frc consts  --      6.6303                 6.8557                 9.1147
 IR Inten    --      6.6733                 8.8653                50.1719

 - Thermochemistry -
 -------------------
 Temperature   298.150 Kelvin.  Pressure   1.00000 Atm.
 Atom     1 has atomic number  8 and mass  15.99491

 Molecular mass:   102.06808 amu.
 Principal axes and moments of inertia in atomic units:
                           1         2         3
     Eigenvalues --   362.826171074.090821237.41129
           X            0.99998   0.00524   0.00280
           Y           -0.00513   0.99936  -0.03529
           Z           -0.00298   0.03528   0.99937
 This molecule is an asymmetric top.
 Rotational symmetry number  1.
 Rotational temperatures (Kelvin)      0.23872     0.08064     0.07000
 Rotational constants (GHZ):           4.97412     1.68025     1.45848
 Zero-point vibrational energy     388153.0 (Joules/Mol)
                                   92.77081 (Kcal/Mol)
 Warning -- explicit consideration of  10 degrees of freedom as
           vibrations may cause significant error
 Vibrational temperatures:     40.04   117.23   315.43   334.93   364.36
          (Kelvin)            396.04   521.36   616.97   687.01   790.41
                              901.22  1046.19  1148.38  1220.25  1337.31
                             1346.32  1359.12  1401.22  1527.44  1625.05
                             1669.51  1708.52  1733.57  1791.22  1966.66
                             1971.68  1994.95  2023.40  2038.25  2063.43
                             2136.75  2145.31  2158.17  2178.23  2542.39
                             4408.23  4413.42  4446.78  4513.78  4521.46
                             4524.17  4528.93  4627.96  4679.70  5485.41

 Zero-point correction=                           0.147840 (Hartree/Particle)
 Thermal correction to Energy=                    0.156123
 Thermal correction to Enthalpy=                  0.157067
 Thermal correction to Gibbs Free Energy=         0.114497
 Sum of electronic and zero-point Energies=           -346.799593
 Sum of electronic and thermal Energies=              -346.791309
 Sum of electronic and thermal Enthalpies=            -346.790365
 Sum of electronic and thermal Free Energies=         -346.832935

                     E (Thermal)             CV                S
                      KCal/Mol        Cal/Mol-Kelvin    Cal/Mol-Kelvin
 Total                   97.969             29.501             89.596
 Electronic               0.000              0.000              0.000
 Translational            0.889              2.981             39.779
 Rotational               0.889              2.981             27.669
 Vibrational             96.191             23.540             22.148
 Vibration     1          0.593              1.984              5.978
 Vibration     2          0.600              1.962              3.855
 Vibration     3          0.647              1.812              1.965
 Vibration     4          0.654              1.791              1.857
 Vibration     5          0.664              1.757              1.708
 Vibration     6          0.677              1.719              1.563
 Vibration     7          0.736              1.550              1.112
 Vibration     8          0.790              1.408              0.863
 Vibration     9          0.834              1.300              0.717
 Vibration    10          0.905              1.141              0.546

                           ! Non-Optimized Parameters !
 Normal termination of Gaussian 16 at Fri Sep 27 18:54:08 2019.
