 Gaussian 16, Revision A.03,
 Gaussian 16:  EM64L-G16RevA.03 25-Dec-2016

 ----------------------------------------------------------------------
 #p m062x/cc-pVTZ opt=(calcfc,maxcycles=900,Tight) freq IOP(7/33=1,2/16
 =3) scf=(maxcycle=900)
 ----------------------------------------------------------------------

 ------------------------------
 Gaussian input prepared by ASE
 ------------------------------
 Symbolic Z-matrix:
 Charge =  0 Multiplicity = 1

 SCF Done:  E(RM062X) =  -346.924149212     A.U. after   13 cycles
 SCF Done:  E(RM062X) =  -346.936970641     A.U. after   12 cycles
 SCF Done:  E(RM062X) =  -346.937669157     A.U. after   12 cycles
 SCF Done:  E(RM062X) =  -346.939050327     A.U. after   11 cycles
 SCF Done:  E(RM062X) =  -346.939163800     A.U. after   10 cycles
 SCF Done:  E(RM062X) =  -346.939171342     A.U. after   10 cycles
 SCF Done:  E(RM062X) =  -346.939183370     A.U. after   10 cycles
 SCF Done:  E(RM062X) =  -346.939184469     A.U. after    8 cycles
 SCF Done:  E(RM062X) =  -346.939184724     A.U. after    7 cycles
 SCF Done:  E(RM062X) =  -346.939184734     A.U. after    6 cycles
 SCF Done:  E(RM062X) =  -346.939184735     A.U. after    3 cycles
 Optimization completed.
    -- Stationary point found.
 Normal termination of Gaussian 16 at Fri Sep 27 05:57:24 2019.

 ----------------------------------------------------------------------
 #P Geom=AllCheck Guess=TCheck SCRF=Check Test GenChk RM062X/CC-pVTZ Fr
 eq
 ----------------------------------------------------------------------

 Structure from the checkpoint file:  "/scratch/harms.n/gauss_scrdir/Gau-10022.chk"
 ------------------------------
 Gaussian input prepared by ASE
 ------------------------------
 Charge =  0 Multiplicity = 1

                         Standard orientation:
 ---------------------------------------------------------------------
 Center     Atomic      Atomic             Coordinates (Angstroms)
 Number     Number       Type             X           Y           Z
 ---------------------------------------------------------------------
      1          8           0        0.152879   -0.460829    0.899134
      2          8           0       -2.302956    0.623471    0.132547
      3          6           0        1.301740    0.257139    0.427257
      4          6           0        0.879350    1.513756   -0.313140
      5          6           0        2.216550   -0.626723   -0.404619
      6          6           0       -0.635920   -1.029685   -0.058561
      7          6           0       -1.821014   -0.537845   -0.391797
      8          1           0        1.814544    0.534118    1.348546
      9          1           0        0.219622    2.114305    0.310063
     10          1           0        1.754391    2.104728   -0.584776
     11          1           0        0.343338    1.252155   -1.226756
     12          1           0        1.757803   -0.870522   -1.363858
     13          1           0        2.440192   -1.552927    0.124119
     14          1           0        3.152991   -0.106716   -0.604819
     15          1           0       -0.292165   -1.951639   -0.513016
     16          1           0       -2.444727   -1.064172   -1.102876
     17          1           0       -3.189617    0.779675   -0.194927
 ---------------------------------------------------------------------

 SCF Done:  E(RM062X) =  -346.939184735     A.U. after    1 cycles

 The electronic state is 1-A.
 Alpha  occ. eigenvalues --  -19.64897 -19.62359 -10.58600 -10.58563 -10.56816
 Alpha  occ. eigenvalues --  -10.52292 -10.51550  -1.18341  -1.15792  -0.88544
 Alpha  occ. eigenvalues --   -0.83481  -0.77989  -0.70271  -0.64902  -0.60425
 Alpha  occ. eigenvalues --   -0.56012  -0.54960  -0.53409  -0.48198  -0.47792
 Alpha  occ. eigenvalues --   -0.46895  -0.44497  -0.43905  -0.43209  -0.41167
 Alpha  occ. eigenvalues --   -0.38223  -0.33670  -0.27509
 Alpha virt. eigenvalues --    0.05364   0.07068   0.08626   0.09845   0.11898
 Alpha virt. eigenvalues --    0.12397   0.13329   0.15187   0.15796   0.16975
 Alpha virt. eigenvalues --    0.17908   0.18452   0.20744   0.23405   0.26288

 Mulliken charges:
               1
     1  O   -0.275001
     2  O   -0.306679
     3  C    0.053541
     4  C   -0.396922
     5  C   -0.397939
     6  C   -0.090004
     7  C    0.002018
     8  H    0.142619
     9  H    0.148043
    10  H    0.120436
    11  H    0.128250
    12  H    0.120533
    13  H    0.136249
    14  H    0.123745
    15  H    0.130929
    16  H    0.107454
    17  H    0.252727
 Sum of Mulliken charges =  -0.00000

 Dipole moment (field-independent basis, Debye):
    X=             -0.8132    Y=              0.0756    Z=             -2.0413  Tot=              2.1986
 Quadrupole moment (field-independent basis, Debye-Ang):
   XX=            -32.8275   YY=            -43.3823   ZZ=            -45.8277
   XY=             -0.1196   XZ=              4.0534   YZ=              1.5118

  Exact polarizability:  83.630  -3.114  65.101   4.289   2.011  54.593
 Approx polarizability:  90.423  -5.144  75.527   5.916   1.728  70.528

                      1                      2                      3
                      A                      A                      A
 Frequencies --     44.9288                83.1596               206.8550
 Red. masses --      3.9303                 2.9914                 1.3420
 Frc consts  --      0.0047                 0.0122                 0.0338
 IR Inten    --      0.5201                 4.2192                92.2408

                      4                      5                      6
                      A                      A                      A
 Frequencies --    216.6397               242.9794               253.1408
 Red. masses --      1.4477                 1.9891                 2.1118
 Frc consts  --      0.0400                 0.0692                 0.0797
 IR Inten    --     15.1342                 0.5763                 2.3889

                      7                      8                      9
                      A                      A                      A
 Frequencies --    269.9570               361.3405               425.7233
 Red. masses --      1.1261                 2.1756                 3.3842
 Frc consts  --      0.0484                 0.1674                 0.3614
 IR Inten    --      1.1224                 0.4371                 7.1994

                     10                     11                     12
                      A                      A                      A
 Frequencies --    483.7826               622.5722               729.3345
 Red. masses --      2.4897                 2.3653                 3.7291
 Frc consts  --      0.3433                 0.5401                 1.1687
 IR Inten    --      1.8498                 2.6494                37.8792

                     13                     14                     15
                      A                      A                      A
 Frequencies --    803.2263               840.0307               925.7799
 Red. masses --      1.5919                 2.8873                 1.3081
 Frc consts  --      0.6051                 1.2004                 0.6605
 IR Inten    --     61.6524                 5.2604                 4.4564

                     16                     17                     18
                      A                      A                      A
 Frequencies --    930.1854               944.1178               963.8500
 Red. masses --      1.2141                 1.4101                 2.7378
 Frc consts  --      0.6190                 0.7406                 1.4985
 IR Inten    --      0.7735                 0.5937                15.5488

                     19                     20                     21
                      A                      A                      A
 Frequencies --   1056.3552              1137.3769              1159.9310
 Red. masses --      2.6477                 1.9864                 2.0742
 Frc consts  --      1.7408                 1.5140                 1.6442
 IR Inten    --     18.6830                43.4280                12.5099

                     22                     23                     24
                      A                      A                      A
 Frequencies --   1199.0734              1204.5846              1263.0709
 Red. masses --      2.9401                 2.0345                 1.1667
 Frc consts  --      2.4906                 1.7393                 1.0966
 IR Inten    --    218.6612                 9.1555                78.4878

                     25                     26                     27
                      A                      A                      A
 Frequencies --   1318.1561              1368.3841              1388.6868
 Red. masses --      1.4426                 1.2879                 1.1957
 Frc consts  --      1.4768                 1.4209                 1.3585
 IR Inten    --     98.8658                 0.9594                 4.3215

                     28                     29                     30
                      A                      A                      A
 Frequencies --   1403.9520              1416.1442              1444.4810
 Red. masses --      1.4234                 1.2733                 1.5055
 Frc consts  --      1.6530                 1.5045                 1.8508
 IR Inten    --     28.2974                23.6234                37.5569

                     31                     32                     33
                      A                      A                      A
 Frequencies --   1481.7125              1491.5449              1496.9652
 Red. masses --      1.0489                 1.0526                 1.0473
 Frc consts  --      1.3568                 1.3797                 1.3827
 IR Inten    --      1.3601                 0.7682                 7.9146

                     34                     35                     36
                      A                      A                      A
 Frequencies --   1513.7527              1795.7003              3062.2235
 Red. masses --      1.0685                 5.9474                 1.0350
 Frc consts  --      1.4426                11.2992                 5.7180
 IR Inten    --      7.9115                30.4518                12.2324

                     37                     38                     39
                      A                      A                      A
 Frequencies --   3065.2134              3091.0855              3132.2655
 Red. masses --      1.0362                 1.0862                 1.1019
 Frc consts  --      5.7358                 6.1147                 6.3696
 IR Inten    --      9.2111                14.7293                 2.8688

                     40                     41                     42
                      A                      A                      A
 Frequencies --   3140.1914              3144.0112              3154.0722
 Red. masses --      1.1010                 1.1025                 1.1026
 Frc consts  --      6.3967                 6.4209                 6.4624
 IR Inten    --     46.5362                21.5777                12.1737

                     43                     44                     45
                      A                      A                      A
 Frequencies --   3179.6343              3211.2947              3924.4535
 Red. masses --      1.0851                 1.0993                 1.0670
 Frc consts  --      6.4636                 6.6792                 9.6817
 IR Inten    --      7.4458                20.5464               119.8735

 - Thermochemistry -
 -------------------
 Temperature   298.150 Kelvin.  Pressure   1.00000 Atm.
 Atom     1 has atomic number  8 and mass  15.99491

 Molecular mass:   102.06808 amu.
 Principal axes and moments of inertia in atomic units:
                           1         2         3
     Eigenvalues --   379.597141028.558281209.50554
           X            0.99999   0.00346   0.00149
           Y           -0.00350   0.99947   0.03221
           Z           -0.00138  -0.03222   0.99948
 This molecule is an asymmetric top.
 Rotational symmetry number  1.
 Rotational temperatures (Kelvin)      0.22817     0.08421     0.07161
 Rotational constants (GHZ):           4.75436     1.75463     1.49213
 Zero-point vibrational energy     386345.5 (Joules/Mol)
                                   92.33879 (Kcal/Mol)
 Warning -- explicit consideration of  10 degrees of freedom as
           vibrations may cause significant error
 Vibrational temperatures:     64.64   119.65   297.62   311.70   349.59
          (Kelvin)            364.21   388.41   519.89   612.52   696.06
                              895.74  1049.35  1155.66  1208.62  1331.99
                             1338.33  1358.37  1386.77  1519.86  1636.43
                             1668.88  1725.20  1733.13  1817.28  1896.53
                             1968.80  1998.01  2019.97  2037.52  2078.29
                             2131.85  2146.00  2153.80  2177.95  2583.61
                             4405.86  4410.16  4447.38  4506.63  4518.04
                             4523.53  4538.01  4574.78  4620.34  5646.41

 Zero-point correction=                           0.147151 (Hartree/Particle)
 Thermal correction to Energy=                    0.155755
 Thermal correction to Enthalpy=                  0.156699
 Thermal correction to Gibbs Free Energy=         0.113889
 Sum of electronic and zero-point Energies=           -346.792034
 Sum of electronic and thermal Energies=              -346.783430
 Sum of electronic and thermal Enthalpies=            -346.782485
 Sum of electronic and thermal Free Energies=         -346.825296

                     E (Thermal)             CV                S
                      KCal/Mol        Cal/Mol-Kelvin    Cal/Mol-Kelvin
 Total                   97.738             30.207             90.103
 Electronic               0.000              0.000              0.000
 Translational            0.889              2.981             39.779
 Rotational               0.889              2.981             27.648
 Vibrational             95.960             24.246             22.676
 Vibration     1          0.595              1.979              5.029
 Vibration     2          0.600              1.961              3.815
 Vibration     3          0.641              1.830              2.071
 Vibration     4          0.645              1.816              1.987
 Vibration     5          0.659              1.774              1.781
 Vibration     6          0.664              1.757              1.709
 Vibration     7          0.674              1.728              1.596
 Vibration     8          0.736              1.552              1.116
 Vibration     9          0.788              1.414              0.873
 Vibration    10          0.840              1.286              0.700

                           ! Non-Optimized Parameters !
 Normal termination of Gaussian 16 at Fri Sep 27 07:51:37 2019.
