 Gaussian 16, Revision A.03,
 Gaussian 16:  EM64L-G16RevA.03 25-Dec-2016

 ----------------------------------------------------------------------
 #p m062x/cc-pVTZ opt=(calcfc,maxcycles=900,Tight) freq IOP(7/33=1,2/16
 =3) scf=(maxcycle=900)
 ----------------------------------------------------------------------

 ------------------------------
 Gaussian input prepared by ASE
 ------------------------------
 Symbolic Z-matrix:
 Charge =  0 Multiplicity = 1

 SCF Done:  E(RM062X) =  -346.926916833     A.U. after   13 cycles
 SCF Done:  E(RM062X) =  -346.938673029     A.U. after   14 cycles
 SCF Done:  E(RM062X) =  -346.934319462     A.U. after   13 cycles
 SCF Done:  E(RM062X) =  -346.939045084     A.U. after   12 cycles
 SCF Done:  E(RM062X) =  -346.940145889     A.U. after   11 cycles
 SCF Done:  E(RM062X) =  -346.940190787     A.U. after   11 cycles
 SCF Done:  E(RM062X) =  -346.940345331     A.U. after   10 cycles
 SCF Done:  E(RM062X) =  -346.940391563     A.U. after    9 cycles
 SCF Done:  E(RM062X) =  -346.940496509     A.U. after   11 cycles
 SCF Done:  E(RM062X) =  -346.940754236     A.U. after   12 cycles
 SCF Done:  E(RM062X) =  -346.947919441     A.U. after    8 cycles
 SCF Done:  E(RM062X) =  -346.947919567     A.U. after    8 cycles
 SCF Done:  E(RM062X) =  -346.947919570     A.U. after    7 cycles
 SCF Done:  E(RM062X) =  -346.947919572     A.U. after    5 cycles
 SCF Done:  E(RM062X) =  -346.947919573     A.U. after    5 cycles
 SCF Done:  E(RM062X) =  -346.947919572     A.U. after    4 cycles
 SCF Done:  E(RM062X) =  -346.947919573     A.U. after    4 cycles
 SCF Done:  E(RM062X) =  -346.947919572     A.U. after    5 cycles
 SCF Done:  E(RM062X) =  -346.947919573     A.U. after    2 cycles
 Optimization completed.
    -- Stationary point found.
 Normal termination of Gaussian 16 at Fri Sep 27 13:48:23 2019.

 ----------------------------------------------------------------------
 #P Geom=AllCheck Guess=TCheck SCRF=Check Test GenChk RM062X/CC-pVTZ Fr
 eq
 ----------------------------------------------------------------------

 Structure from the checkpoint file:  "/scratch/harms.n/gauss_scrdir/Gau-743.chk"
 ------------------------------
 Gaussian input prepared by ASE
 ------------------------------
 Charge =  0 Multiplicity = 1

                         Standard orientation:
 ---------------------------------------------------------------------
 Center     Atomic      Atomic             Coordinates (Angstroms)
 Number     Number       Type             X           Y           Z
 ---------------------------------------------------------------------
      1          8           0        0.014676   -0.103642    0.301939
      2          8           0        2.676107   -0.759619    0.159594
      3          6           0       -1.265303   -0.031519   -0.332089
      4          6           0       -2.080607    1.112890    0.245903
      5          6           0       -1.931193   -1.372464   -0.106730
      6          6           0        0.935961    0.819027   -0.124947
      7          6           0        2.215722    0.474631   -0.167426
      8          1           0       -1.106250    0.126950   -1.403943
      9          1           0       -2.227439    0.953915    1.314459
     10          1           0       -1.585624    2.072873    0.105562
     11          1           0       -3.055911    1.163378   -0.237797
     12          1           0       -2.039453   -1.552887    0.963143
     13          1           0       -1.333312   -2.174575   -0.535975
     14          1           0       -2.919928   -1.388212   -0.563619
     15          1           0        0.593317    1.811673   -0.379643
     16          1           0        2.989943    1.169934   -0.450880
     17          1           0        1.910917   -1.292358    0.408172
 ---------------------------------------------------------------------

 SCF Done:  E(RM062X) =  -346.947919573     A.U. after    1 cycles

 The electronic state is 1-A.
 Alpha  occ. eigenvalues --  -19.64527 -19.63892 -10.60046 -10.58143 -10.57310
 Alpha  occ. eigenvalues --  -10.53302 -10.53213  -1.18994  -1.16310  -0.90167
 Alpha  occ. eigenvalues --   -0.82972  -0.79304  -0.70585  -0.66592  -0.60453
 Alpha  occ. eigenvalues --   -0.59755  -0.54196  -0.51934  -0.49355  -0.48259
 Alpha  occ. eigenvalues --   -0.46393  -0.45846  -0.45148  -0.43957  -0.42863
 Alpha  occ. eigenvalues --   -0.39566  -0.37535  -0.26538
 Alpha virt. eigenvalues --    0.06152   0.07918   0.08494   0.10080   0.11150
 Alpha virt. eigenvalues --    0.11736   0.12182   0.14173   0.15407   0.17548
 Alpha virt. eigenvalues --    0.18164   0.18664   0.20691   0.22835   0.24999

 Mulliken charges:
               1
     1  O   -0.295892
     2  O   -0.347471
     3  C    0.024975
     4  C   -0.346857
     5  C   -0.346927
     6  C   -0.067172
     7  C   -0.016187
     8  H    0.129332
     9  H    0.127048
    10  H    0.120086
    11  H    0.123729
    12  H    0.124080
    13  H    0.123448
    14  H    0.112116
    15  H    0.122919
    16  H    0.147629
    17  H    0.265144
 Sum of Mulliken charges =   0.00000

 Dipole moment (field-independent basis, Debye):
    X=             -2.2571    Y=              0.6207    Z=             -0.7058  Tot=              2.4449
 Quadrupole moment (field-independent basis, Debye-Ang):
   XX=            -46.1211   YY=            -40.9228   ZZ=            -45.0692
   XY=              2.4831   XZ=             -0.1657   YZ=             -1.2549

  Exact polarizability:  87.666  -1.125  66.021  -0.616  -1.498  52.303
 Approx polarizability:  93.009  -3.638  75.679  -0.073  -2.831  66.971

                      1                      2                      3
                      A                      A                      A
 Frequencies --     17.3284                85.4143               168.3701
 Red. masses --      4.0133                 3.4737                 2.8731
 Frc consts  --      0.0007                 0.0149                 0.0480
 IR Inten    --      0.5635                 0.5607                 2.2555

                      4                      5                      6
                      A                      A                      A
 Frequencies --    209.0154               251.7698               272.4647
 Red. masses --      1.0476                 1.7553                 1.7088
 Frc consts  --      0.0270                 0.0656                 0.0747
 IR Inten    --      0.0121                 1.2718                 0.3143

                      7                      8                      9
                      A                      A                      A
 Frequencies --    362.4223               451.9683               458.3751
 Red. masses --      2.2914                 1.9250                 1.8676
 Frc consts  --      0.1773                 0.2317                 0.2312
 IR Inten    --      0.4656                39.1653                26.4114

                     10                     11                     12
                      A                      A                      A
 Frequencies --    485.4396               577.2666               719.5764
 Red. masses --      1.8517                 3.2532                 2.9147
 Frc consts  --      0.2571                 0.6387                 0.8892
 IR Inten    --     29.5933                17.0895                19.0693

                     13                     14                     15
                      A                      A                      A
 Frequencies --    757.3516               877.8300               910.4374
 Red. masses --      1.3874                 2.5768                 1.2739
 Frc consts  --      0.4689                 1.1699                 0.6221
 IR Inten    --     30.3807                 2.0944                 6.9017

                     16                     17                     18
                      A                      A                      A
 Frequencies --    935.8777               950.0661               980.3920
 Red. masses --      1.1625                 1.4791                 2.4057
 Frc consts  --      0.5999                 0.7866                 1.3624
 IR Inten    --      0.4812                 0.6150                14.6091

                     19                     20                     21
                      A                      A                      A
 Frequencies --   1094.1461              1148.2986              1170.0019
 Red. masses --      2.9493                 2.3629                 2.2369
 Frc consts  --      2.0803                 1.8357                 1.8042
 IR Inten    --     64.9749               220.3866               107.8796

                     22                     23                     24
                      A                      A                      A
 Frequencies --   1183.8398              1209.1661              1250.1218
 Red. masses --      2.2442                 1.8896                 1.3338
 Frc consts  --      1.8531                 1.6278                 1.2282
 IR Inten    --     39.0716                62.7596                59.4604

                     25                     26                     27
                      A                      A                      A
 Frequencies --   1369.2169              1377.9731              1381.8688
 Red. masses --      1.4258                 1.3117                 1.2451
 Frc consts  --      1.5749                 1.4675                 1.4009
 IR Inten    --      1.1885                 5.7998                67.3467

                     28                     29                     30
                      A                      A                      A
 Frequencies --   1412.3247              1420.8377              1437.4016
 Red. masses --      1.4973                 1.2680                 1.4183
 Frc consts  --      1.7597                 1.5082                 1.7265
 IR Inten    --     19.1555                32.5290                70.2894

                     31                     32                     33
                      A                      A                      A
 Frequencies --   1484.3568              1488.6175              1499.1566
 Red. masses --      1.0506                 1.0485                 1.0569
 Frc consts  --      1.3639                 1.3690                 1.3995
 IR Inten    --      1.8013                 0.2417                 6.2593

                     34                     35                     36
                      A                      A                      A
 Frequencies --   1513.3740              1778.7676              3037.2329
 Red. masses --      1.0587                 6.3218                 1.0847
 Frc consts  --      1.4286                11.7849                 5.8956
 IR Inten    --      7.3926                57.4268                24.4981

                     37                     38                     39
                      A                      A                      A
 Frequencies --   3066.2171              3069.4177              3140.3913
 Red. masses --      1.0349                 1.0354                 1.1029
 Frc consts  --      5.7327                 5.7474                 6.4085
 IR Inten    --     12.8159                 9.9245                 1.1299

                     40                     41                     42
                      A                      A                      A
 Frequencies --   3144.9604              3146.6689              3151.8595
 Red. masses --      1.1020                 1.1021                 1.1030
 Frc consts  --      6.4219                 6.4292                 6.4557
 IR Inten    --     18.0583                31.7702                20.0166

                     43                     44                     45
                      A                      A                      A
 Frequencies --   3224.3151              3260.3845              3828.2650
 Red. masses --      1.0881                 1.0996                 1.0646
 Frc consts  --      6.6649                 6.8870                 9.1928
 IR Inten    --      7.5622                 8.4507                54.6339

 - Thermochemistry -
 -------------------
 Temperature   298.150 Kelvin.  Pressure   1.00000 Atm.
 Atom     1 has atomic number  8 and mass  15.99491

 Molecular mass:   102.06808 amu.
 Principal axes and moments of inertia in atomic units:
                           1         2         3
     Eigenvalues --   321.935961269.195751516.69084
           X            0.99993   0.01132  -0.00343
           Y           -0.01133   0.99993  -0.00416
           Z            0.00338   0.00420   0.99999
 This molecule is an asymmetric top.
 Rotational symmetry number  1.
 Rotational temperatures (Kelvin)      0.26904     0.06824     0.05711
 Rotational constants (GHZ):           5.60590     1.42196     1.18992
 Zero-point vibrational energy     387354.1 (Joules/Mol)
                                   92.57985 (Kcal/Mol)
 Warning -- explicit consideration of  11 degrees of freedom as
           vibrations may cause significant error
 Vibrational temperatures:     24.93   122.89   242.25   300.73   362.24
          (Kelvin)            392.02   521.44   650.28   659.50   698.44
                              830.56  1035.31  1089.66  1263.00  1309.92
                             1346.52  1366.93  1410.57  1574.23  1652.15
                             1683.37  1703.28  1739.72  1798.65  1970.00
                             1982.60  1988.20  2032.02  2044.27  2068.10
                             2135.66  2141.79  2156.95  2177.41  2559.25
                             4369.90  4411.60  4416.21  4518.32  4524.90
                             4527.35  4534.82  4639.07  4690.97  5508.02

 Zero-point correction=                           0.147535 (Hartree/Particle)
 Thermal correction to Energy=                    0.156027
 Thermal correction to Enthalpy=                  0.156971
 Thermal correction to Gibbs Free Energy=         0.113434
 Sum of electronic and zero-point Energies=           -346.800384
 Sum of electronic and thermal Energies=              -346.791892
 Sum of electronic and thermal Enthalpies=            -346.790948
 Sum of electronic and thermal Free Energies=         -346.834486

                     E (Thermal)             CV                S
                      KCal/Mol        Cal/Mol-Kelvin    Cal/Mol-Kelvin
 Total                   97.908             29.840             91.632
 Electronic               0.000              0.000              0.000
 Translational            0.889              2.981             39.779
 Rotational               0.889              2.981             27.918
 Vibrational             96.131             23.879             23.935
 Vibration     1          0.593              1.986              6.919
 Vibration     2          0.601              1.959              3.762
 Vibration     3          0.625              1.881              2.454
 Vibration     4          0.642              1.827              2.052
 Vibration     5          0.664              1.760              1.718
 Vibration     6          0.675              1.724              1.581
 Vibration     7          0.736              1.550              1.112
 Vibration     8          0.811              1.357              0.790
 Vibration     9          0.816              1.342              0.771
 Vibration    10          0.841              1.282              0.696
 Vibration    11          0.934              1.080              0.490

                           ! Non-Optimized Parameters !
 Normal termination of Gaussian 16 at Fri Sep 27 15:36:12 2019.
