 Gaussian 16, Revision A.03,
 Gaussian 16:  EM64L-G16RevA.03 25-Dec-2016

 ----------------------------------------------------------------------
 #p m062x/cc-pVTZ opt=(calcfc,maxcycles=900,Tight) freq IOP(7/33=1,2/16
 =3) scf=(maxcycle=900)
 ----------------------------------------------------------------------

 ------------------------------
 Gaussian input prepared by ASE
 ------------------------------
 Symbolic Z-matrix:
 Charge =  0 Multiplicity = 1

 SCF Done:  E(RM062X) =  -346.922464945     A.U. after   13 cycles
 SCF Done:  E(RM062X) =  -346.935106850     A.U. after   14 cycles
 SCF Done:  E(RM062X) =  -346.923912927     A.U. after   12 cycles
 SCF Done:  E(RM062X) =  -346.936581497     A.U. after   13 cycles
 SCF Done:  E(RM062X) =  -346.845825127     A.U. after   13 cycles
 SCF Done:  E(RM062X) =  -346.938783753     A.U. after   13 cycles
 SCF Done:  E(RM062X) =  -346.937061071     A.U. after   14 cycles
 SCF Done:  E(RM062X) =  -346.939376833     A.U. after   12 cycles
 SCF Done:  E(RM062X) =  -346.938868475     A.U. after   14 cycles
 SCF Done:  E(RM062X) =  -346.939617881     A.U. after   12 cycles
 SCF Done:  E(RM062X) =  -346.940637001     A.U. after    7 cycles
 SCF Done:  E(RM062X) =  -346.940637354     A.U. after    7 cycles
 SCF Done:  E(RM062X) =  -346.940637827     A.U. after    8 cycles
 SCF Done:  E(RM062X) =  -346.940638250     A.U. after    9 cycles
 SCF Done:  E(RM062X) =  -346.940638328     A.U. after    7 cycles
 SCF Done:  E(RM062X) =  -346.940638334     A.U. after    6 cycles
 SCF Done:  E(RM062X) =  -346.940638334     A.U. after    4 cycles
 SCF Done:  E(RM062X) =  -346.940638334     A.U. after    4 cycles
 SCF Done:  E(RM062X) =  -346.940638334     A.U. after    5 cycles
 Optimization completed on the basis of negligible forces.
    -- Stationary point found.
 Normal termination of Gaussian 16 at Fri Sep 27 09:32:21 2019.

 ----------------------------------------------------------------------
 #P Geom=AllCheck Guess=TCheck SCRF=Check Test GenChk RM062X/CC-pVTZ Fr
 eq
 ----------------------------------------------------------------------

 Structure from the checkpoint file:  "/scratch/harms.n/gauss_scrdir/Gau-3721.chk"
 ------------------------------
 Gaussian input prepared by ASE
 ------------------------------
 Charge =  0 Multiplicity = 1

                         Standard orientation:
 ---------------------------------------------------------------------
 Center     Atomic      Atomic             Coordinates (Angstroms)
 Number     Number       Type             X           Y           Z
 ---------------------------------------------------------------------
      1          8           0       -0.254260   -0.422003    0.538676
      2          8           0        3.256153    0.053603   -0.233140
      3          6           0       -1.320931   -0.027687   -0.330244
      4          6           0       -1.753122    1.405266   -0.065511
      5          6           0       -2.443955   -1.012004   -0.081731
      6          6           0        0.936730    0.219372    0.331982
      7          6           0        2.004612   -0.453900   -0.072730
      8          1           0       -0.964175   -0.119944   -1.362364
      9          1           0       -2.035601    1.516140    0.982225
     10          1           0       -0.961143    2.117524   -0.292736
     11          1           0       -2.613261    1.656305   -0.685746
     12          1           0       -2.779793   -0.933452    0.952655
     13          1           0       -2.101677   -2.030192   -0.256977
     14          1           0       -3.286832   -0.803587   -0.739611
     15          1           0        0.980332    1.280462    0.567157
     16          1           0        1.951286   -1.510855   -0.292421
     17          1           0        3.255714    0.988511   -0.007072
 ---------------------------------------------------------------------

 SCF Done:  E(RM062X) =  -346.940638334     A.U. after    1 cycles

 The electronic state is 1-A.
 Alpha  occ. eigenvalues --  -19.65132 -19.63428 -10.59267 -10.58901 -10.57462
 Alpha  occ. eigenvalues --  -10.52908 -10.52504  -1.18433  -1.17015  -0.89652
 Alpha  occ. eigenvalues --   -0.82876  -0.78786  -0.70907  -0.66790  -0.59992
 Alpha  occ. eigenvalues --   -0.59595  -0.53539  -0.52494  -0.49128  -0.48055
 Alpha  occ. eigenvalues --   -0.46230  -0.45712  -0.45152  -0.44240  -0.42113
 Alpha  occ. eigenvalues --   -0.39193  -0.34945  -0.27733
 Alpha virt. eigenvalues --    0.06268   0.06659   0.07739   0.09849   0.11175
 Alpha virt. eigenvalues --    0.11873   0.13109   0.14114   0.15859   0.16683
 Alpha virt. eigenvalues --    0.18171   0.18267   0.20914   0.24447   0.25806

 Mulliken charges:
               1
     1  O   -0.275754
     2  O   -0.335620
     3  C    0.046789
     4  C   -0.377120
     5  C   -0.340525
     6  C   -0.104493
     7  C    0.012784
     8  H    0.121013
     9  H    0.132675
    10  H    0.117508
    11  H    0.123788
    12  H    0.121351
    13  H    0.124584
    14  H    0.105835
    15  H    0.110162
    16  H    0.164968
    17  H    0.252057
 Sum of Mulliken charges =  -0.00000

 Dipole moment (field-independent basis, Debye):
    X=             -0.9460    Y=              1.6760    Z=             -0.6065  Tot=              2.0178
 Quadrupole moment (field-independent basis, Debye-Ang):
   XX=            -44.5285   YY=            -40.5204   ZZ=            -45.7617
   XY=              3.5887   XZ=              1.8922   YZ=              1.4931

  Exact polarizability:  88.265  -1.975  65.995  -2.086   2.683  53.204
 Approx polarizability:  91.050  -4.152  77.052  -4.001   3.094  68.823

                      1                      2                      3
                      A                      A                      A
 Frequencies --     43.8235                70.5596               175.6483
 Red. masses --      2.5722                 3.6757                 2.1246
 Frc consts  --      0.0029                 0.0108                 0.0386
 IR Inten    --      1.8686                 2.5750                10.1560

                      4                      5                      6
                      A                      A                      A
 Frequencies --    213.5347               253.0252               329.8540
 Red. masses --      1.0604                 1.1525                 2.7682
 Frc consts  --      0.0285                 0.0435                 0.1775
 IR Inten    --      0.4713                 0.6933                10.3419

                      7                      8                      9
                      A                      A                      A
 Frequencies --    341.8289               356.8754               421.2618
 Red. masses --      2.4299                 1.9964                 1.7921
 Frc consts  --      0.1673                 0.1498                 0.1874
 IR Inten    --      1.9474                19.0026                58.1490

                     10                     11                     12
                      A                      A                      A
 Frequencies --    450.3142               486.5069               618.5411
 Red. masses --      2.5556                 3.1182                 3.5777
 Frc consts  --      0.3053                 0.4348                 0.8065
 IR Inten    --      6.1113                 8.3022                 7.3965

                     13                     14                     15
                      A                      A                      A
 Frequencies --    834.9844               874.4377               934.1403
 Red. masses --      2.3757                 2.0324                 1.1867
 Frc consts  --      0.9759                 0.9156                 0.6101
 IR Inten    --     17.2237                10.7219                 0.8543

                     16                     17                     18
                      A                      A                      A
 Frequencies --    951.6215               956.6490               972.0550
 Red. masses --      1.4721                 1.3990                 1.6257
 Frc consts  --      0.7854                 0.7543                 0.9051
 IR Inten    --      0.2991                16.3598                54.2455

                     19                     20                     21
                      A                      A                      A
 Frequencies --   1128.4253              1158.5312              1179.9469
 Red. masses --      2.1296                 1.9895                 2.1572
 Frc consts  --      1.5977                 1.5733                 1.7695
 IR Inten    --    120.7109                23.8700                41.9432

                     22                     23                     24
                      A                      A                      A
 Frequencies --   1201.6202              1228.1879              1280.6652
 Red. masses --      1.9734                 4.0979                 1.9043
 Frc consts  --      1.6788                 3.6420                 1.8401
 IR Inten    --     16.5295               344.6508                51.4578

                     25                     26                     27
                      A                      A                      A
 Frequencies --   1327.3632              1369.6559              1376.3185
 Red. masses --      1.1865                 1.2515                 1.2616
 Frc consts  --      1.2317                 1.3832                 1.4081
 IR Inten    --      0.4986                63.7852                 3.8226

                     28                     29                     30
                      A                      A                      A
 Frequencies --   1396.7831              1410.9995              1418.8588
 Red. masses --      1.3282                 1.4460                 1.3449
 Frc consts  --      1.5267                 1.6962                 1.5953
 IR Inten    --     39.9128                30.9470                10.9283

                     31                     32                     33
                      A                      A                      A
 Frequencies --   1484.0108              1489.4808              1499.6569
 Red. masses --      1.0566                 1.0473                 1.0555
 Frc consts  --      1.3709                 1.3690                 1.3986
 IR Inten    --      1.2516                 1.0056                 2.7649

                     34                     35                     36
                      A                      A                      A
 Frequencies --   1515.0670              1774.0291              3029.5011
 Red. masses --      1.0536                 5.9149                 1.0844
 Frc consts  --      1.4249                10.9678                 5.8636
 IR Inten    --      8.1583                21.5523                25.6265

                     37                     38                     39
                      A                      A                      A
 Frequencies --   3064.2320              3069.1750              3136.9712
 Red. masses --      1.0355                 1.0355                 1.0984
 Frc consts  --      5.7286                 5.7468                 6.3683
 IR Inten    --     11.9695                13.2899                 7.5084

                     40                     41                     42
                      A                      A                      A
 Frequencies --   3138.8164              3145.1098              3148.0349
 Red. masses --      1.0990                 1.1016                 1.0963
 Frc consts  --      6.3793                 6.4204                 6.4012
 IR Inten    --      2.2784                34.0019                50.5901

                     43                     44                     45
                      A                      A                      A
 Frequencies --   3154.4904              3233.5052              3866.4273
 Red. masses --      1.1028                 1.0935                 1.0655
 Frc consts  --      6.4656                 6.7364                 9.3848
 IR Inten    --     16.8740                 5.6029                48.9302

 - Thermochemistry -
 -------------------
 Temperature   298.150 Kelvin.  Pressure   1.00000 Atm.
 Atom     1 has atomic number  8 and mass  15.99491

 Molecular mass:   102.06808 amu.
 Principal axes and moments of inertia in atomic units:
                           1         2         3
     Eigenvalues --   270.643111511.809881685.10211
           X            0.99998   0.00420   0.00451
           Y           -0.00431   0.99966   0.02590
           Z           -0.00440  -0.02592   0.99965
 This molecule is an asymmetric top.
 Rotational symmetry number  1.
 Rotational temperatures (Kelvin)      0.32003     0.05729     0.05140
 Rotational constants (GHZ):           6.66834     1.19376     1.07100
 Zero-point vibrational energy     385864.6 (Joules/Mol)
                                   92.22385 (Kcal/Mol)
 Warning -- explicit consideration of  12 degrees of freedom as
           vibrations may cause significant error
 Vibrational temperatures:     63.05   101.52   252.72   307.23   364.05
          (Kelvin)            474.59   491.82   513.46   606.10   647.90
                              699.97   889.94  1201.36  1258.12  1344.02
                             1369.17  1376.40  1398.57  1623.55  1666.87
                             1697.68  1728.86  1767.09  1842.59  1909.78
                             1970.63  1980.22  2009.66  2030.11  2041.42
                             2135.16  2143.03  2157.67  2179.84  2552.43
                             4358.78  4408.75  4415.86  4513.40  4516.06
                             4525.11  4529.32  4538.61  4652.29  5562.93

 Zero-point correction=                           0.146968 (Hartree/Particle)
 Thermal correction to Energy=                    0.155587
 Thermal correction to Enthalpy=                  0.156531
 Thermal correction to Gibbs Free Energy=         0.113426
 Sum of electronic and zero-point Energies=           -346.793670
 Sum of electronic and thermal Energies=              -346.785052
 Sum of electronic and thermal Enthalpies=            -346.784107
 Sum of electronic and thermal Free Energies=         -346.827212

                     E (Thermal)             CV                S
                      KCal/Mol        Cal/Mol-Kelvin    Cal/Mol-Kelvin
 Total                   97.632             30.305             90.722
 Electronic               0.000              0.000              0.000
 Translational            0.889              2.981             39.779
 Rotational               0.889              2.981             28.024
 Vibrational             95.855             24.344             22.919
 Vibration     1          0.595              1.980              5.078
 Vibration     2          0.598              1.968              4.138
 Vibration     3          0.628              1.872              2.374
 Vibration     4          0.644              1.820              2.013
 Vibration     5          0.664              1.758              1.709
 Vibration     6          0.713              1.616              1.261
 Vibration     7          0.721              1.592              1.204
 Vibration     8          0.732              1.561              1.136
 Vibration     9          0.784              1.424              0.888
 Vibration    10          0.809              1.360              0.795
 Vibration    11          0.843              1.280              0.693
 Vibration    12          0.978              0.993              0.419

 Optimization completed on the basis of negligible forces.
    -- Stationary point found.
 Normal termination of Gaussian 16 at Fri Sep 27 10:55:11 2019.
