 Gaussian 16, Revision A.03,
 Gaussian 16:  EM64L-G16RevA.03 25-Dec-2016

 ----------------------------------------------------------------------
 #p m062x/cc-pVTZ opt=(calcfc,maxcycles=900,Tight) freq IOP(7/33=1,2/16
 =3) scf=(maxcycle=900)
 ----------------------------------------------------------------------

 ------------------------------
 Gaussian input prepared by ASE
 ------------------------------
 Symbolic Z-matrix:
 Charge =  0 Multiplicity = 1

 SCF Done:  E(RM062X) =  -346.905282035     A.U. after   13 cycles
 SCF Done:  E(RM062X) =  -346.922593881     A.U. after   13 cycles
 SCF Done:  E(RM062X) =  -346.918623977     A.U. after   12 cycles
 SCF Done:  E(RM062X) =  -346.926101568     A.U. after   12 cycles
 SCF Done:  E(RM062X) =  -346.929711772     A.U. after   13 cycles
 SCF Done:  E(RM062X) =  -346.930734532     A.U. after   14 cycles
 SCF Done:  E(RM062X) =  -346.931548689     A.U. after   10 cycles
 SCF Done:  E(RM062X) =  -346.932308555     A.U. after   12 cycles
 SCF Done:  E(RM062X) =  -346.933099736     A.U. after   12 cycles
 SCF Done:  E(RM062X) =  -346.933642040     A.U. after   11 cycles
 SCF Done:  E(RM062X) =  -346.934278209     A.U. after    9 cycles
 SCF Done:  E(RM062X) =  -346.934286847     A.U. after    9 cycles
 SCF Done:  E(RM062X) =  -346.934287962     A.U. after    8 cycles
 SCF Done:  E(RM062X) =  -346.934288024     A.U. after    5 cycles
 SCF Done:  E(RM062X) =  -346.934288047     A.U. after    6 cycles
 SCF Done:  E(RM062X) =  -346.934288047     A.U. after    4 cycles
 SCF Done:  E(RM062X) =  -346.934288046     A.U. after    3 cycles
 SCF Done:  E(RM062X) =  -346.934288054     A.U. after    5 cycles
 SCF Done:  E(RM062X) =  -346.934288047     A.U. after    4 cycles
 Optimization completed on the basis of negligible forces.
    -- Stationary point found.
 Normal termination of Gaussian 16 at Fri Sep 27 12:56:03 2019.

 ----------------------------------------------------------------------
 #P Geom=AllCheck Guess=TCheck SCRF=Check Test GenChk RM062X/CC-pVTZ Fr
 eq
 ----------------------------------------------------------------------

 Structure from the checkpoint file:  "/scratch/harms.n/gauss_scrdir/Gau-8114.chk"
 ------------------------------
 Gaussian input prepared by ASE
 ------------------------------
 Charge =  0 Multiplicity = 1

                         Standard orientation:
 ---------------------------------------------------------------------
 Center     Atomic      Atomic             Coordinates (Angstroms)
 Number     Number       Type             X           Y           Z
 ---------------------------------------------------------------------
      1          8           0        0.429206   -0.287612   -1.181931
      2          8           0       -2.830619    0.003960    0.410724
      3          6           0        1.484955   -0.058107   -0.248018
      4          6           0        1.525515   -1.103044    0.857499
      5          6           0        1.516537    1.375756    0.260654
      6          6           0       -0.875480   -0.192522   -0.838907
      7          6           0       -1.453384    0.086626    0.323563
      8          1           0        2.367797   -0.204385   -0.871101
      9          1           0        0.727076   -0.978541    1.585051
     10          1           0        1.447919   -2.101339    0.429590
     11          1           0        2.476325   -1.025995    1.385015
     12          1           0        0.731621    1.583253    0.984140
     13          1           0        1.410580    2.069533   -0.572113
     14          1           0        2.475417    1.560828    0.744811
     15          1           0       -1.514959   -0.410489   -1.684912
     16          1           0       -0.929352    0.310587    1.240951
     17          1           0       -3.169986    0.813512    0.799475
 ---------------------------------------------------------------------

 SCF Done:  E(RM062X) =  -346.934288047     A.U. after    1 cycles

 The electronic state is 1-A.
 Alpha  occ. eigenvalues --  -19.64488 -19.63299 -10.59940 -10.58110 -10.57320
 Alpha  occ. eigenvalues --  -10.53149 -10.52982  -1.18257  -1.15931  -0.89677
 Alpha  occ. eigenvalues --   -0.83640  -0.79182  -0.72094  -0.64021  -0.60999
 Alpha  occ. eigenvalues --   -0.56915  -0.54918  -0.52560  -0.50371  -0.48366
 Alpha  occ. eigenvalues --   -0.47795  -0.46446  -0.43833  -0.42488  -0.39693
 Alpha  occ. eigenvalues --   -0.38870  -0.37766  -0.26700
 Alpha virt. eigenvalues --    0.06276   0.06730   0.07406   0.09872   0.11836
 Alpha virt. eigenvalues --    0.12201   0.12852   0.14078   0.16446   0.17235
 Alpha virt. eigenvalues --    0.17856   0.19037   0.22798   0.23113   0.24217

 Mulliken charges:
               1
     1  O   -0.242903
     2  O   -0.351668
     3  C   -0.013715
     4  C   -0.375203
     5  C   -0.380624
     6  C   -0.018865
     7  C   -0.091433
     8  H    0.153094
     9  H    0.134409
    10  H    0.139572
    11  H    0.121646
    12  H    0.127342
    13  H    0.140411
    14  H    0.124359
    15  H    0.164004
    16  H    0.120531
    17  H    0.249042
 Sum of Mulliken charges =  -0.00000

 Dipole moment (field-independent basis, Debye):
    X=              1.1662    Y=              1.5179    Z=              1.5214  Tot=              2.4451
 Quadrupole moment (field-independent basis, Debye-Ang):
   XX=            -41.9822   YY=            -43.5073   ZZ=            -43.6194
   XY=             -4.2932   XZ=             -0.6420   YZ=              1.4983

  Exact polarizability:  78.318  -1.542  58.558  -2.708   2.288  63.409
 Approx polarizability:  84.994  -2.273  68.384  -7.302   5.076  82.752

                      1                      2                      3
                      A                      A                      A
 Frequencies --     73.5287               119.2197               180.1734
 Red. masses --      2.0240                 1.5728                 2.2834
 Frc consts  --      0.0064                 0.0132                 0.0437
 IR Inten    --      0.8096                 9.7604                20.7125

                      4                      5                      6
                      A                      A                      A
 Frequencies --    199.0414               208.1673               243.1330
 Red. masses --      1.0479                 1.4305                 1.4847
 Frc consts  --      0.0245                 0.0365                 0.0517
 IR Inten    --     15.7470                48.5309                40.7096

                      7                      8                      9
                      A                      A                      A
 Frequencies --    307.3990               327.3804               382.2385
 Red. masses --      3.1108                 3.6908                 2.6361
 Frc consts  --      0.1732                 0.2331                 0.2269
 IR Inten    --      3.5864                 7.1394                 4.6957

                     10                     11                     12
                      A                      A                      A
 Frequencies --    453.5215               484.8395               692.5634
 Red. masses --      3.7886                 3.1728                 4.6562
 Frc consts  --      0.4591                 0.4394                 1.3158
 IR Inten    --      8.4084                 2.9174                 5.7205

                     13                     14                     15
                      A                      A                      A
 Frequencies --    800.7588               838.0632               928.2741
 Red. masses --      2.8249                 1.6457                 1.2212
 Frc consts  --      1.0672                 0.6810                 0.6200
 IR Inten    --      6.5622                14.7765                 1.3116

                     16                     17                     18
                      A                      A                      A
 Frequencies --    942.9946               947.1209               973.9177
 Red. masses --      2.2592                 1.3536                 1.1377
 Frc consts  --      1.1837                 0.7154                 0.6358
 IR Inten    --     13.5795                 1.0027                41.1637

                     19                     20                     21
                      A                      A                      A
 Frequencies --   1147.0218              1162.3331              1180.3993
 Red. masses --      1.9941                 2.2131                 5.1254
 Frc consts  --      1.5457                 1.7616                 4.2076
 IR Inten    --     36.2031                15.3877               134.0872

                     22                     23                     24
                      A                      A                      A
 Frequencies --   1193.5577              1209.2909              1291.4988
 Red. masses --      1.9324                 1.7816                 2.1474
 Frc consts  --      1.6219                 1.5351                 2.1103
 IR Inten    --      7.5663               335.3117                44.2943

                     25                     26                     27
                      A                      A                      A
 Frequencies --   1345.9527              1362.1660              1379.6798
 Red. masses --      1.2602                 1.2058                 1.2826
 Frc consts  --      1.3451                 1.3182                 1.4385
 IR Inten    --     12.9311                27.5135                 1.1978

                     28                     29                     30
                      A                      A                      A
 Frequencies --   1405.1535              1419.7777              1432.4815
 Red. masses --      1.3612                 1.2489                 1.2448
 Frc consts  --      1.5835                 1.4833                 1.5050
 IR Inten    --     21.9068                14.2375                17.4978

                     31                     32                     33
                      A                      A                      A
 Frequencies --   1487.3707              1491.0743              1498.7059
 Red. masses --      1.0492                 1.0626                 1.0557
 Frc consts  --      1.3676                 1.3919                 1.3971
 IR Inten    --      0.1450                 0.0321                 7.7978

                     34                     35                     36
                      A                      A                      A
 Frequencies --   1510.6870              1772.4585              3075.6607
 Red. masses --      1.0628                 5.6016                 1.0366
 Frc consts  --      1.4291                10.3684                 5.7774
 IR Inten    --      3.3995                22.1785                13.8340

                     37                     38                     39
                      A                      A                      A
 Frequencies --   3078.7651              3085.8537              3144.6797
 Red. masses --      1.0385                 1.0847                 1.1013
 Frc consts  --      5.7999                 6.0857                 6.4166
 IR Inten    --      7.5014                16.8499                 6.2246

                     40                     41                     42
                      A                      A                      A
 Frequencies --   3146.8306              3163.2153              3166.7604
 Red. masses --      1.1018                 1.1011                 1.1006
 Frc consts  --      6.4282                 6.4915                 6.5027
 IR Inten    --     24.8432                 9.7709                32.0906

                     43                     44                     45
                      A                      A                      A
 Frequencies --   3206.9461              3231.5596              3876.5088
 Red. masses --      1.0908                 1.0913                 1.0665
 Frc consts  --      6.6095                 6.7146                 9.4428
 IR Inten    --      9.6410                19.2836                68.6898

 - Thermochemistry -
 -------------------
 Temperature   298.150 Kelvin.  Pressure   1.00000 Atm.
 Atom     1 has atomic number  8 and mass  15.99491

 Molecular mass:   102.06808 amu.
 Principal axes and moments of inertia in atomic units:
                           1         2         3
     Eigenvalues --   404.122181213.080241218.46593
           X            0.99984   0.01573  -0.00871
           Y            0.00428   0.26227   0.96499
           Z           -0.01747   0.96487  -0.26216
 This molecule is an asymmetric top.
 Rotational symmetry number  1.
 Rotational temperatures (Kelvin)      0.21433     0.07140     0.07108
 Rotational constants (GHZ):           4.46583     1.48773     1.48116
 Zero-point vibrational energy     386206.7 (Joules/Mol)
                                   92.30563 (Kcal/Mol)
 Warning -- explicit consideration of  11 degrees of freedom as
           vibrations may cause significant error
 Vibrational temperatures:    105.79   171.53   259.23   286.38   299.51
          (Kelvin)            349.81   442.28   471.03   549.96   652.52
                              697.58   996.44  1152.11  1205.79  1335.58
                             1356.76  1362.70  1401.25  1650.31  1672.34
                             1698.33  1717.26  1739.90  1858.18  1936.53
                             1959.85  1985.05  2021.70  2042.74  2061.02
                             2139.99  2145.32  2156.30  2173.54  2550.17
                             4425.19  4429.66  4439.86  4524.49  4527.59
                             4551.16  4556.26  4614.08  4649.49  5577.43

 Zero-point correction=                           0.147098 (Hartree/Particle)
 Thermal correction to Energy=                    0.155850
 Thermal correction to Enthalpy=                  0.156794
 Thermal correction to Gibbs Free Energy=         0.114088
 Sum of electronic and zero-point Energies=           -346.787190
 Sum of electronic and thermal Energies=              -346.778438
 Sum of electronic and thermal Enthalpies=            -346.777494
 Sum of electronic and thermal Free Energies=         -346.820200

                     E (Thermal)             CV                S
                      KCal/Mol        Cal/Mol-Kelvin    Cal/Mol-Kelvin
 Total                   97.797             30.673             89.882
 Electronic               0.000              0.000              0.000
 Translational            0.889              2.981             39.779
 Rotational               0.889              2.981             27.882
 Vibrational             96.020             24.712             22.221
 Vibration     1          0.599              1.966              4.057
 Vibration     2          0.609              1.933              3.113
 Vibration     3          0.629              1.867              2.327
 Vibration     4          0.637              1.841              2.142
 Vibration     5          0.641              1.828              2.060
 Vibration     6          0.659              1.774              1.780
 Vibration     7          0.697              1.660              1.376
 Vibration     8          0.711              1.621              1.273
 Vibration     9          0.752              1.508              1.030
 Vibration    10          0.812              1.353              0.785
 Vibration    11          0.841              1.284              0.697

                           ! Non-Optimized Parameters !
 Normal termination of Gaussian 16 at Fri Sep 27 14:49:52 2019.
