 Gaussian 16, Revision A.03,
 Gaussian 16:  EM64L-G16RevA.03 25-Dec-2016

 ----------------------------------------------------------------------
 #p m062x/cc-pVTZ opt=(calcfc,maxcycles=900,Tight) freq IOP(7/33=1,2/16
 =3) scf=(maxcycle=900)
 ----------------------------------------------------------------------

 ------------------------------
 Gaussian input prepared by ASE
 ------------------------------
 Symbolic Z-matrix:
 Charge =  0 Multiplicity = 1

 SCF Done:  E(RM062X) =  -346.924915337     A.U. after   13 cycles
 SCF Done:  E(RM062X) =  -346.937723478     A.U. after   13 cycles
 SCF Done:  E(RM062X) =  -346.927019331     A.U. after   12 cycles
 SCF Done:  E(RM062X) =  -346.937956598     A.U. after   12 cycles
 SCF Done:  E(RM062X) =  -346.939572159     A.U. after   12 cycles
 SCF Done:  E(RM062X) =  -346.929885856     A.U. after   13 cycles
 SCF Done:  E(RM062X) =  -346.940005830     A.U. after   10 cycles
 SCF Done:  E(RM062X) =  -346.940083238     A.U. after   10 cycles
 SCF Done:  E(RM062X) =  -346.940114336     A.U. after   10 cycles
 SCF Done:  E(RM062X) =  -346.940141451     A.U. after   10 cycles
 SCF Done:  E(RM062X) =  -346.947919565     A.U. after    9 cycles
 SCF Done:  E(RM062X) =  -346.947919567     A.U. after    7 cycles
 SCF Done:  E(RM062X) =  -346.947919570     A.U. after    5 cycles
 SCF Done:  E(RM062X) =  -346.947919572     A.U. after    5 cycles
 SCF Done:  E(RM062X) =  -346.947919572     A.U. after    4 cycles
 SCF Done:  E(RM062X) =  -346.947919573     A.U. after    5 cycles
 SCF Done:  E(RM062X) =  -346.947919572     A.U. after    5 cycles
 SCF Done:  E(RM062X) =  -346.947919573     A.U. after    2 cycles
 SCF Done:  E(RM062X) =  -346.947919572     A.U. after    5 cycles
 Optimization completed.
    -- Stationary point found.
 Normal termination of Gaussian 16 at Sun Sep 29 22:15:37 2019.

 ----------------------------------------------------------------------
 #P Geom=AllCheck Guess=TCheck SCRF=Check Test GenChk RM062X/CC-pVTZ Fr
 eq
 ----------------------------------------------------------------------

 Structure from the checkpoint file:  "/scratch/harms.n/gauss_scrdir/Gau-36180.chk"
 ------------------------------
 Gaussian input prepared by ASE
 ------------------------------
 Charge =  0 Multiplicity = 1

                         Standard orientation:
 ---------------------------------------------------------------------
 Center     Atomic      Atomic             Coordinates (Angstroms)
 Number     Number       Type             X           Y           Z
 ---------------------------------------------------------------------
      1          8           0       -0.014687   -0.103726    0.301749
      2          8           0       -2.676175   -0.759567    0.159802
      3          6           0        1.265373   -0.031472   -0.332094
      4          6           0        1.931297   -1.372411   -0.106798
      5          6           0        2.080541    1.112911    0.246140
      6          6           0       -0.935964    0.818934   -0.125164
      7          6           0       -2.215750    0.474609   -0.167455
      8          1           0        1.106461    0.127109   -1.403953
      9          1           0        2.039414   -1.552954    0.963069
     10          1           0        1.333515   -2.174501   -0.536221
     11          1           0        2.920098   -1.388056   -0.563547
     12          1           0        2.227271    0.953801    1.314690
     13          1           0        1.585502    2.072878    0.105882
     14          1           0        3.055891    1.163534   -0.237452
     15          1           0       -0.593288    1.811518   -0.380059
     16          1           0       -2.989958    1.169912   -0.450940
     17          1           0       -1.910990   -1.292326    0.408353
 ---------------------------------------------------------------------

 SCF Done:  E(RM062X) =  -346.947919572     A.U. after    1 cycles

 The electronic state is 1-A.
 Alpha  occ. eigenvalues --  -19.64527 -19.63892 -10.60046 -10.58143 -10.57310
 Alpha  occ. eigenvalues --  -10.53302 -10.53213  -1.18994  -1.16310  -0.90167
 Alpha  occ. eigenvalues --   -0.82972  -0.79304  -0.70585  -0.66592  -0.60453
 Alpha  occ. eigenvalues --   -0.59755  -0.54197  -0.51934  -0.49356  -0.48259
 Alpha  occ. eigenvalues --   -0.46393  -0.45846  -0.45148  -0.43956  -0.42863
 Alpha  occ. eigenvalues --   -0.39566  -0.37536  -0.26537
 Alpha virt. eigenvalues --    0.06152   0.07918   0.08494   0.10080   0.11150
 Alpha virt. eigenvalues --    0.11736   0.12182   0.14173   0.15407   0.17548
 Alpha virt. eigenvalues --    0.18164   0.18664   0.20691   0.22836   0.24997

 Mulliken charges:
               1
     1  O   -0.295886
     2  O   -0.347471
     3  C    0.024970
     4  C   -0.346930
     5  C   -0.346851
     6  C   -0.067146
     7  C   -0.016219
     8  H    0.129334
     9  H    0.124079
    10  H    0.123451
    11  H    0.112115
    12  H    0.127044
    13  H    0.120087
    14  H    0.123729
    15  H    0.122924
    16  H    0.147626
    17  H    0.265143
 Sum of Mulliken charges =  -0.00000

 Dipole moment (field-independent basis, Debye):
    X=              2.2573    Y=              0.6207    Z=             -0.7058  Tot=              2.4452
 Quadrupole moment (field-independent basis, Debye-Ang):
   XX=            -46.1215   YY=            -40.9230   ZZ=            -45.0687
   XY=             -2.4828   XZ=              0.1662   YZ=             -1.2554

  Exact polarizability:  87.667   1.124  66.020   0.615  -1.499  52.304
 Approx polarizability:  93.010   3.637  75.678   0.071  -2.833  66.971

                      1                      2                      3
                      A                      A                      A
 Frequencies --     17.2976                85.4328               168.3462
 Red. masses --      4.0137                 3.4733                 2.8737
 Frc consts  --      0.0007                 0.0149                 0.0480
 IR Inten    --      0.5632                 0.5604                 2.2541

                      4                      5                      6
                      A                      A                      A
 Frequencies --    209.0126               251.7643               272.4748
 Red. masses --      1.0476                 1.7542                 1.7097
 Frc consts  --      0.0270                 0.0655                 0.0748
 IR Inten    --      0.0121                 1.2709                 0.3145

                      7                      8                      9
                      A                      A                      A
 Frequencies --    362.4208               451.9622               458.3536
 Red. masses --      2.2914                 1.9199                 1.8712
 Frc consts  --      0.1773                 0.2311                 0.2316
 IR Inten    --      0.4657                39.3416                26.3041

                     10                     11                     12
                      A                      A                      A
 Frequencies --    485.4267               577.2462               719.5709
 Red. masses --      1.8527                 3.2539                 2.9149
 Frc consts  --      0.2572                 0.6388                 0.8893
 IR Inten    --     29.5329                17.0792                19.0670

                     13                     14                     15
                      A                      A                      A
 Frequencies --    757.3229               877.8346               910.4196
 Red. masses --      1.3872                 2.5768                 1.2738
 Frc consts  --      0.4688                 1.1699                 0.6221
 IR Inten    --     30.3816                 2.0934                 6.8992

                     16                     17                     18
                      A                      A                      A
 Frequencies --    935.8761               950.0669               980.3988
 Red. masses --      1.1625                 1.4791                 2.4058
 Frc consts  --      0.5999                 0.7866                 1.3624
 IR Inten    --      0.4811                 0.6147                14.6047

                     19                     20                     21
                      A                      A                      A
 Frequencies --   1094.1477              1148.2971              1170.0039
 Red. masses --      2.9492                 2.3629                 2.2367
 Frc consts  --      2.0802                 1.8357                 1.8040
 IR Inten    --     64.9873               220.3989               107.8504

                     22                     23                     24
                      A                      A                      A
 Frequencies --   1183.8443              1209.1691              1250.1279
 Red. masses --      2.2444                 1.8897                 1.3338
 Frc consts  --      1.8533                 1.6278                 1.2282
 IR Inten    --     39.1003                62.7907                59.4600

                     25                     26                     27
                      A                      A                      A
 Frequencies --   1369.2198              1377.9724              1381.8708
 Red. masses --      1.4257                 1.3117                 1.2451
 Frc consts  --      1.5748                 1.4675                 1.4009
 IR Inten    --      1.1890                 5.8022                67.3569

                     28                     29                     30
                      A                      A                      A
 Frequencies --   1412.3249              1420.8386              1437.4056
 Red. masses --      1.4973                 1.2680                 1.4183
 Frc consts  --      1.7597                 1.5081                 1.7265
 IR Inten    --     19.1576                32.5294                70.3032

                     31                     32                     33
                      A                      A                      A
 Frequencies --   1484.3585              1488.6163              1499.1564
 Red. masses --      1.0506                 1.0485                 1.0569
 Frc consts  --      1.3639                 1.3690                 1.3995
 IR Inten    --      1.8004                 0.2424                 6.2603

                     34                     35                     36
                      A                      A                      A
 Frequencies --   1513.3715              1778.7711              3037.2306
 Red. masses --      1.0587                 6.3218                 1.0847
 Frc consts  --      1.4286                11.7851                 5.8956
 IR Inten    --      7.3915                57.4213                24.5026

                     37                     38                     39
                      A                      A                      A
 Frequencies --   3066.2184              3069.4200              3140.3929
 Red. masses --      1.0349                 1.0354                 1.1029
 Frc consts  --      5.7327                 5.7474                 6.4085
 IR Inten    --     12.8144                 9.9255                 1.1284

                     40                     41                     42
                      A                      A                      A
 Frequencies --   3144.9601              3146.6718              3151.8614
 Red. masses --      1.1020                 1.1021                 1.1030
 Frc consts  --      6.4219                 6.4292                 6.4557
 IR Inten    --     18.0591                31.7777                20.0099

                     43                     44                     45
                      A                      A                      A
 Frequencies --   3224.3229              3260.3892              3828.2740
 Red. masses --      1.0881                 1.0996                 1.0646
 Frc consts  --      6.6649                 6.8870                 9.1929
 IR Inten    --      7.5603                 8.4497                54.6324

 - Thermochemistry -
 -------------------
 Temperature   298.150 Kelvin.  Pressure   1.00000 Atm.
 Atom     1 has atomic number  8 and mass  15.99491

 Molecular mass:   102.06808 amu.
 Principal axes and moments of inertia in atomic units:
                           1         2         3
     Eigenvalues --   321.926721269.247821516.71428
           X            0.99993  -0.01132   0.00343
           Y            0.01133   0.99993  -0.00415
           Z           -0.00339   0.00419   0.99999
 This molecule is an asymmetric top.
 Rotational symmetry number  1.
 Rotational temperatures (Kelvin)      0.26905     0.06824     0.05711
 Rotational constants (GHZ):           5.60606     1.42190     1.18990
 Zero-point vibrational energy     387353.6 (Joules/Mol)
                                   92.57973 (Kcal/Mol)
 Warning -- explicit consideration of  11 degrees of freedom as
           vibrations may cause significant error
 Vibrational temperatures:     24.89   122.92   242.21   300.72   362.23
          (Kelvin)            392.03   521.44   650.27   659.47   698.42
                              830.53  1035.30  1089.62  1263.01  1309.89
                             1346.52  1366.93  1410.58  1574.23  1652.14
                             1683.37  1703.29  1739.72  1798.66  1970.00
                             1982.59  1988.20  2032.02  2044.27  2068.11
                             2135.66  2141.79  2156.95  2177.40  2559.25
                             4369.90  4411.60  4416.21  4518.32  4524.90
                             4527.36  4534.83  4639.08  4690.97  5508.03

 Zero-point correction=                           0.147535 (Hartree/Particle)
 Thermal correction to Energy=                    0.156027
 Thermal correction to Enthalpy=                  0.156971
 Thermal correction to Gibbs Free Energy=         0.113432
 Sum of electronic and zero-point Energies=           -346.800384
 Sum of electronic and thermal Energies=              -346.791893
 Sum of electronic and thermal Enthalpies=            -346.790948
 Sum of electronic and thermal Free Energies=         -346.834488

                     E (Thermal)             CV                S
                      KCal/Mol        Cal/Mol-Kelvin    Cal/Mol-Kelvin
 Total                   97.908             29.840             91.636
 Electronic               0.000              0.000              0.000
 Translational            0.889              2.981             39.779
 Rotational               0.889              2.981             27.918
 Vibrational             96.131             23.879             23.939
 Vibration     1          0.593              1.986              6.922
 Vibration     2          0.601              1.959              3.762
 Vibration     3          0.625              1.881              2.454
 Vibration     4          0.642              1.827              2.052
 Vibration     5          0.664              1.760              1.718
 Vibration     6          0.675              1.724              1.580
 Vibration     7          0.736              1.550              1.112
 Vibration     8          0.811              1.357              0.790
 Vibration     9          0.816              1.342              0.771
 Vibration    10          0.841              1.282              0.696
 Vibration    11          0.934              1.080              0.490

                           ! Non-Optimized Parameters !
 Normal termination of Gaussian 16 at Sun Sep 29 23:35:12 2019.
