 Gaussian 16, Revision A.03,
 Gaussian 16:  EM64L-G16RevA.03 25-Dec-2016

 ----------------------------------------------------------------------
 #p m062x/cc-pVTZ opt=(calcfc,maxcycles=900,Tight) freq IOP(7/33=1,2/16
 =3) scf=(maxcycle=900)
 ----------------------------------------------------------------------

 ------------------------------
 Gaussian input prepared by ASE
 ------------------------------
 Symbolic Z-matrix:
 Charge =  0 Multiplicity = 1

 SCF Done:  E(RM062X) =  -346.915469705     A.U. after   13 cycles
 SCF Done:  E(RM062X) =  -346.928317506     A.U. after   14 cycles
 SCF Done:  E(RM062X) =  -346.919821590     A.U. after   14 cycles
 SCF Done:  E(RM062X) =  -346.931137211     A.U. after   13 cycles
 SCF Done:  E(RM062X) =  -346.927349841     A.U. after   12 cycles
 SCF Done:  E(RM062X) =  -346.931435054     A.U. after   11 cycles
 SCF Done:  E(RM062X) =  -346.928200461     A.U. after   12 cycles
 SCF Done:  E(RM062X) =  -346.932341786     A.U. after   12 cycles
 SCF Done:  E(RM062X) =  -346.932835314     A.U. after   11 cycles
 SCF Done:  E(RM062X) =  -346.933252574     A.U. after   10 cycles
 SCF Done:  E(RM062X) =  -346.934282450     A.U. after   10 cycles
 SCF Done:  E(RM062X) =  -346.934286214     A.U. after    8 cycles
 SCF Done:  E(RM062X) =  -346.934287199     A.U. after    8 cycles
 SCF Done:  E(RM062X) =  -346.934287642     A.U. after    8 cycles
 SCF Done:  E(RM062X) =  -346.934287839     A.U. after    7 cycles
 SCF Done:  E(RM062X) =  -346.934288051     A.U. after    7 cycles
 SCF Done:  E(RM062X) =  -346.934288052     A.U. after    5 cycles
 SCF Done:  E(RM062X) =  -346.934288046     A.U. after    5 cycles
 SCF Done:  E(RM062X) =  -346.934288046     A.U. after    4 cycles
 Optimization completed.
    -- Stationary point found.
 Normal termination of Gaussian 16 at Fri Sep 27 09:37:53 2019.

 ----------------------------------------------------------------------
 #P Geom=AllCheck Guess=TCheck SCRF=Check Test GenChk RM062X/CC-pVTZ Fr
 eq
 ----------------------------------------------------------------------

 Structure from the checkpoint file:  "/scratch/harms.n/gauss_scrdir/Gau-32711.chk"
 ------------------------------
 Gaussian input prepared by ASE
 ------------------------------
 Charge =  0 Multiplicity = 1

                         Standard orientation:
 ---------------------------------------------------------------------
 Center     Atomic      Atomic             Coordinates (Angstroms)
 Number     Number       Type             X           Y           Z
 ---------------------------------------------------------------------
      1          8           0       -0.429203   -0.287454    1.181969
      2          8           0        2.830615    0.003913   -0.410733
      3          6           0       -1.484957   -0.058088    0.248022
      4          6           0       -1.525480   -1.103163   -0.857367
      5          6           0       -1.516572    1.375714   -0.260822
      6          6           0        0.875481   -0.192419    0.838929
      7          6           0        1.453381    0.086607   -0.323572
      8          1           0       -2.367797   -0.204310    0.871120
      9          1           0       -1.447841   -2.101402   -0.429332
     10          1           0       -2.476291   -1.026225   -1.384896
     11          1           0       -0.727041   -0.978721   -1.584932
     12          1           0       -0.731631    1.583160   -0.984293
     13          1           0       -1.410689    2.069595    0.571867
     14          1           0       -2.475439    1.560685   -0.745048
     15          1           0        1.514964   -0.410302    1.684953
     16          1           0        0.929351    0.310491   -1.240981
     17          1           0        3.169998    0.813459   -0.799485
 ---------------------------------------------------------------------

 SCF Done:  E(RM062X) =  -346.934288046     A.U. after    1 cycles

 The electronic state is 1-A.
 Alpha  occ. eigenvalues --  -19.64488 -19.63299 -10.59940 -10.58110 -10.57320
 Alpha  occ. eigenvalues --  -10.53149 -10.52982  -1.18257  -1.15931  -0.89677
 Alpha  occ. eigenvalues --   -0.83640  -0.79182  -0.72094  -0.64021  -0.60999
 Alpha  occ. eigenvalues --   -0.56915  -0.54918  -0.52560  -0.50371  -0.48366
 Alpha  occ. eigenvalues --   -0.47795  -0.46446  -0.43833  -0.42488  -0.39693
 Alpha  occ. eigenvalues --   -0.38870  -0.37766  -0.26700
 Alpha virt. eigenvalues --    0.06277   0.06730   0.07406   0.09872   0.11836
 Alpha virt. eigenvalues --    0.12201   0.12852   0.14078   0.16446   0.17235
 Alpha virt. eigenvalues --    0.17856   0.19037   0.22797   0.23113   0.24217

 Mulliken charges:
               1
     1  O   -0.242903
     2  O   -0.351672
     3  C   -0.013715
     4  C   -0.375207
     5  C   -0.380618
     6  C   -0.018863
     7  C   -0.091435
     8  H    0.153094
     9  H    0.139573
    10  H    0.121647
    11  H    0.134410
    12  H    0.127344
    13  H    0.140409
    14  H    0.124357
    15  H    0.164005
    16  H    0.120531
    17  H    0.249043
 Sum of Mulliken charges =  -0.00000

 Dipole moment (field-independent basis, Debye):
    X=             -1.1662    Y=              1.5177    Z=             -1.5215  Tot=              2.4451
 Quadrupole moment (field-independent basis, Debye-Ang):
   XX=            -41.9821   YY=            -43.5075   ZZ=            -43.6194
   XY=              4.2934   XZ=             -0.6419   YZ=             -1.4983

  Exact polarizability:  78.318   1.542  58.558  -2.708  -2.287  63.410
 Approx polarizability:  84.994   2.273  68.383  -7.302  -5.075  82.752

                      1                      2                      3
                      A                      A                      A
 Frequencies --     73.5240               119.2381               180.1822
 Red. masses --      2.0237                 1.5730                 2.2843
 Frc consts  --      0.0064                 0.0132                 0.0437
 IR Inten    --      0.8099                 9.7495                20.6732

                      4                      5                      6
                      A                      A                      A
 Frequencies --    199.0367               208.1785               243.1451
 Red. masses --      1.0480                 1.4302                 1.4846
 Frc consts  --      0.0245                 0.0365                 0.0517
 IR Inten    --     15.7121                48.5711                40.7480

                      7                      8                      9
                      A                      A                      A
 Frequencies --    307.3986               327.3867               382.2392
 Red. masses --      3.1109                 3.6903                 2.6362
 Frc consts  --      0.1732                 0.2330                 0.2269
 IR Inten    --      3.5850                 7.1449                 4.6969

                     10                     11                     12
                      A                      A                      A
 Frequencies --    453.5219               484.8421               692.5634
 Red. masses --      3.7885                 3.1728                 4.6562
 Frc consts  --      0.4591                 0.4394                 1.3158
 IR Inten    --      8.4088                 2.9176                 5.7208

                     13                     14                     15
                      A                      A                      A
 Frequencies --    800.7565               838.0653               928.2733
 Red. masses --      2.8249                 1.6456                 1.2212
 Frc consts  --      1.0672                 0.6810                 0.6200
 IR Inten    --      6.5625                14.7778                 1.3111

                     16                     17                     18
                      A                      A                      A
 Frequencies --    942.9911               947.1229               973.9257
 Red. masses --      2.2593                 1.3536                 1.1378
 Frc consts  --      1.1837                 0.7154                 0.6358
 IR Inten    --     13.5803                 1.0024                41.1624

                     19                     20                     21
                      A                      A                      A
 Frequencies --   1147.0246              1162.3328              1180.3999
 Red. masses --      1.9941                 2.2131                 5.1264
 Frc consts  --      1.5457                 1.7617                 4.2084
 IR Inten    --     36.1928                15.3880               134.1120

                     22                     23                     24
                      A                      A                      A
 Frequencies --   1193.5574              1209.2956              1291.4961
 Red. masses --      1.9324                 1.7817                 2.1472
 Frc consts  --      1.6219                 1.5351                 2.1102
 IR Inten    --      7.5627               335.2989                44.2908

                     25                     26                     27
                      A                      A                      A
 Frequencies --   1345.9554              1362.1644              1379.6816
 Red. masses --      1.2602                 1.2058                 1.2826
 Frc consts  --      1.3451                 1.3182                 1.4385
 IR Inten    --     12.9300                27.5111                 1.1981

                     28                     29                     30
                      A                      A                      A
 Frequencies --   1405.1541              1419.7790              1432.4799
 Red. masses --      1.3612                 1.2489                 1.2448
 Frc consts  --      1.5835                 1.4833                 1.5050
 IR Inten    --     21.9062                14.2367                17.4981

                     31                     32                     33
                      A                      A                      A
 Frequencies --   1487.3711              1491.0739              1498.7054
 Red. masses --      1.0492                 1.0626                 1.0557
 Frc consts  --      1.3676                 1.3919                 1.3971
 IR Inten    --      0.1451                 0.0321                 7.7979

                     34                     35                     36
                      A                      A                      A
 Frequencies --   1510.6869              1772.4590              3075.6581
 Red. masses --      1.0628                 5.6016                 1.0366
 Frc consts  --      1.4291                10.3685                 5.7774
 IR Inten    --      3.3995                22.1804                13.8339

                     37                     38                     39
                      A                      A                      A
 Frequencies --   3078.7625              3085.8484              3144.6750
 Red. masses --      1.0385                 1.0847                 1.1013
 Frc consts  --      5.7999                 6.0857                 6.4166
 IR Inten    --      7.5014                16.8517                 6.2276

                     40                     41                     42
                      A                      A                      A
 Frequencies --   3146.8256              3163.2245              3166.7571
 Red. masses --      1.1018                 1.1011                 1.1006
 Frc consts  --      6.4282                 6.4915                 6.5026
 IR Inten    --     24.8387                 9.7275                32.1335

                     43                     44                     45
                      A                      A                      A
 Frequencies --   3206.9402              3231.5557              3876.4926
 Red. masses --      1.0908                 1.0913                 1.0665
 Frc consts  --      6.6094                 6.7146                 9.4427
 IR Inten    --      9.6408                19.2841                68.6866

 - Thermochemistry -
 -------------------
 Temperature   298.150 Kelvin.  Pressure   1.00000 Atm.
 Atom     1 has atomic number  8 and mass  15.99491

 Molecular mass:   102.06808 amu.
 Principal axes and moments of inertia in atomic units:
                           1         2         3
     Eigenvalues --   404.122851213.080441218.46435
           X            0.99984   0.01574   0.00871
           Y           -0.00428  -0.26199   0.96506
           Z           -0.01747   0.96494   0.26188
 This molecule is an asymmetric top.
 Rotational symmetry number  1.
 Rotational temperatures (Kelvin)      0.21433     0.07140     0.07108
 Rotational constants (GHZ):           4.46582     1.48773     1.48116
 Zero-point vibrational energy     386206.9 (Joules/Mol)
                                   92.30566 (Kcal/Mol)
 Warning -- explicit consideration of  11 degrees of freedom as
           vibrations may cause significant error
 Vibrational temperatures:    105.78   171.56   259.24   286.37   299.52
          (Kelvin)            349.83   442.28   471.04   549.96   652.52
                              697.58   996.44  1152.11  1205.79  1335.58
                             1356.75  1362.70  1401.26  1650.31  1672.34
                             1698.33  1717.26  1739.91  1858.17  1936.53
                             1959.85  1985.05  2021.70  2042.75  2061.02
                             2140.00  2145.32  2156.30  2173.54  2550.17
                             4425.19  4429.65  4439.85  4524.49  4527.58
                             4551.17  4556.26  4614.07  4649.49  5577.41

 Zero-point correction=                           0.147098 (Hartree/Particle)
 Thermal correction to Energy=                    0.155850
 Thermal correction to Enthalpy=                  0.156794
 Thermal correction to Gibbs Free Energy=         0.114089
 Sum of electronic and zero-point Energies=           -346.787190
 Sum of electronic and thermal Energies=              -346.778438
 Sum of electronic and thermal Enthalpies=            -346.777494
 Sum of electronic and thermal Free Energies=         -346.820199

                     E (Thermal)             CV                S
                      KCal/Mol        Cal/Mol-Kelvin    Cal/Mol-Kelvin
 Total                   97.797             30.673             89.881
 Electronic               0.000              0.000              0.000
 Translational            0.889              2.981             39.779
 Rotational               0.889              2.981             27.882
 Vibrational             96.020             24.712             22.221
 Vibration     1          0.599              1.966              4.057
 Vibration     2          0.609              1.933              3.113
 Vibration     3          0.629              1.867              2.327
 Vibration     4          0.637              1.841              2.142
 Vibration     5          0.641              1.828              2.060
 Vibration     6          0.659              1.774              1.780
 Vibration     7          0.697              1.660              1.376
 Vibration     8          0.711              1.621              1.273
 Vibration     9          0.752              1.508              1.030
 Vibration    10          0.812              1.353              0.785
 Vibration    11          0.841              1.284              0.697

                           ! Non-Optimized Parameters !
 Normal termination of Gaussian 16 at Fri Sep 27 11:10:01 2019.
