 Gaussian 16, Revision A.03,
 Gaussian 16:  EM64L-G16RevA.03 25-Dec-2016

 ----------------------------------------------------------------------
 #p m062x/cc-pVTZ opt=(calcfc,maxcycles=900,Tight) freq IOP(7/33=1,2/16
 =3) scf=(maxcycle=900)
 ----------------------------------------------------------------------

 ------------------------------
 Gaussian input prepared by ASE
 ------------------------------
 Symbolic Z-matrix:
 Charge =  0 Multiplicity = 1

 SCF Done:  E(RM062X) =  -346.911053201     A.U. after   13 cycles
 SCF Done:  E(RM062X) =  -346.926427353     A.U. after   12 cycles
 SCF Done:  E(RM062X) =  -346.927807905     A.U. after   12 cycles
 SCF Done:  E(RM062X) =  -346.929206379     A.U. after   11 cycles
 SCF Done:  E(RM062X) =  -346.931777939     A.U. after   13 cycles
 SCF Done:  E(RM062X) =  -346.932854252     A.U. after   13 cycles
 SCF Done:  E(RM062X) =  -346.933803847     A.U. after   11 cycles
 SCF Done:  E(RM062X) =  -346.933852963     A.U. after    9 cycles
 SCF Done:  E(RM062X) =  -346.934204983     A.U. after   11 cycles
 SCF Done:  E(RM062X) =  -346.923970120     A.U. after   12 cycles
 SCF Done:  E(RM062X) =  -346.942387228     A.U. after   10 cycles
 SCF Done:  E(RM062X) =  -346.942401500     A.U. after    9 cycles
 SCF Done:  E(RM062X) =  -346.942403638     A.U. after    8 cycles
 SCF Done:  E(RM062X) =  -346.942403862     A.U. after    7 cycles
 SCF Done:  E(RM062X) =  -346.942403880     A.U. after    6 cycles
 SCF Done:  E(RM062X) =  -346.942403882     A.U. after    4 cycles
 SCF Done:  E(RM062X) =  -346.942403878     A.U. after    5 cycles
 SCF Done:  E(RM062X) =  -346.942403881     A.U. after    5 cycles
 SCF Done:  E(RM062X) =  -346.942403881     A.U. after    3 cycles
 Optimization completed.
    -- Stationary point found.
 Normal termination of Gaussian 16 at Fri Sep 27 18:18:28 2019.

 ----------------------------------------------------------------------
 #P Geom=AllCheck Guess=TCheck SCRF=Check Test GenChk RM062X/CC-pVTZ Fr
 eq
 ----------------------------------------------------------------------

 Structure from the checkpoint file:  "/scratch/harms.n/gauss_scrdir/Gau-46757.chk"
 ------------------------------
 Gaussian input prepared by ASE
 ------------------------------
 Charge =  0 Multiplicity = 1

                         Standard orientation:
 ---------------------------------------------------------------------
 Center     Atomic      Atomic             Coordinates (Angstroms)
 Number     Number       Type             X           Y           Z
 ---------------------------------------------------------------------
      1          8           0       -0.325446    1.073742   -0.155805
      2          8           0        1.805858   -0.932201    0.651740
      3          6           0       -0.954578   -0.158998    0.219551
      4          6           0       -0.900854   -1.149413   -0.929212
      5          6           0       -2.375399    0.210841    0.589990
      6          6           0        1.012408    1.110088   -0.346532
      7          6           0        1.978253    0.258484   -0.015838
      8          1           0       -0.437205   -0.568131    1.087189
      9          1           0       -1.424993   -0.740506   -1.794098
     10          1           0        0.128087   -1.367474   -1.207427
     11          1           0       -1.382328   -2.083313   -0.638879
     12          1           0       -2.879686    0.653413   -0.269508
     13          1           0       -2.382656    0.932422    1.404985
     14          1           0       -2.927120   -0.676059    0.899795
     15          1           0        1.315406    2.026756   -0.832482
     16          1           0        2.993106    0.530138   -0.271502
     17          1           0        2.595120   -1.465584    0.546686
 ---------------------------------------------------------------------

 SCF Done:  E(RM062X) =  -346.942403881     A.U. after    1 cycles

 The electronic state is 1-A.
 Alpha  occ. eigenvalues --  -19.64819 -19.63793 -10.58399 -10.57993 -10.57818
 Alpha  occ. eigenvalues --  -10.51905 -10.51700  -1.18333  -1.16676  -0.89120
 Alpha  occ. eigenvalues --   -0.83470  -0.77832  -0.70826  -0.63704  -0.62981
 Alpha  occ. eigenvalues --   -0.56561  -0.53848  -0.52802  -0.49525  -0.47078
 Alpha  occ. eigenvalues --   -0.46223  -0.44809  -0.43150  -0.42955  -0.41368
 Alpha  occ. eigenvalues --   -0.38575  -0.36993  -0.26185
 Alpha virt. eigenvalues --    0.05003   0.08520   0.09021   0.10530   0.12011
 Alpha virt. eigenvalues --    0.12884   0.13769   0.14901   0.15798   0.17170
 Alpha virt. eigenvalues --    0.18030   0.18944   0.21377   0.24229   0.25378

 Mulliken charges:
               1
     1  O   -0.247037
     2  O   -0.330300
     3  C   -0.003932
     4  C   -0.362700
     5  C   -0.344626
     6  C   -0.061399
     7  C   -0.057307
     8  H    0.162779
     9  H    0.123336
    10  H    0.139280
    11  H    0.120648
    12  H    0.117277
    13  H    0.122813
    14  H    0.105854
    15  H    0.147579
    16  H    0.114749
    17  H    0.252987
 Sum of Mulliken charges =   0.00000

 Dipole moment (field-independent basis, Debye):
    X=              1.5318    Y=             -1.3353    Z=             -0.2657  Tot=              2.0494
 Quadrupole moment (field-independent basis, Debye-Ang):
   XX=            -35.1826   YY=            -42.8925   ZZ=            -45.4517
   XY=             -1.2473   XZ=             -1.1712   YZ=             -1.0365

  Exact polarizability:  81.357  -2.930  65.515  -0.152  -2.555  55.488
 Approx polarizability:  86.747  -7.642  80.756   1.975  -5.961  68.534

                      1                      2                      3
                      A                      A                      A
 Frequencies --     85.5863               119.7162               136.6138
 Red. masses --      3.1392                 3.1580                 1.1254
 Frc consts  --      0.0135                 0.0267                 0.0124
 IR Inten    --      4.7404                 0.7331               121.7533

                      4                      5                      6
                      A                      A                      A
 Frequencies --    177.6855               205.1251               254.4976
 Red. masses --      2.2653                 1.1764                 1.2876
 Frc consts  --      0.0421                 0.0292                 0.0491
 IR Inten    --      1.6178                 0.4048                 0.1615

                      7                      8                      9
                      A                      A                      A
 Frequencies --    290.1035               360.0090               437.4019
 Red. masses --      3.4236                 2.2971                 3.2179
 Frc consts  --      0.1698                 0.1754                 0.3627
 IR Inten    --      1.1292                 1.4031                 4.3352

                     10                     11                     12
                      A                      A                      A
 Frequencies --    475.5424               552.7168               756.7728
 Red. masses --      2.3616                 4.0456                 1.3335
 Frc consts  --      0.3147                 0.7282                 0.4499
 IR Inten    --      2.7394                 6.6783                47.5389

                     13                     14                     15
                      A                      A                      A
 Frequencies --    807.0438               838.2607               923.3159
 Red. masses --      3.3473                 3.3142                 1.2338
 Frc consts  --      1.2845                 1.3721                 0.6197
 IR Inten    --      5.3322                39.9233                 1.3642

                     16                     17                     18
                      A                      A                      A
 Frequencies --    930.2365               938.8129               958.4332
 Red. masses --      2.2431                 1.1914                 1.4996
 Frc consts  --      1.1436                 0.6187                 0.8116
 IR Inten    --      1.6440                 0.8170                 2.0830

                     19                     20                     21
                      A                      A                      A
 Frequencies --   1036.6592              1151.6887              1175.2552
 Red. masses --      3.0997                 1.8645                 1.9577
 Frc consts  --      1.9626                 1.4571                 1.5932
 IR Inten    --     39.6096                28.0711                13.9297

                     22                     23                     24
                      A                      A                      A
 Frequencies --   1190.2915              1211.8641              1272.0885
 Red. masses --      2.5116                 2.1822                 1.2874
 Frc consts  --      2.0966                 1.8882                 1.2274
 IR Inten    --    135.8050                92.7670                95.9321

                     25                     26                     27
                      A                      A                      A
 Frequencies --   1368.6198              1375.3226              1388.4433
 Red. masses --      1.3582                 1.2791                 1.1893
 Frc consts  --      1.4989                 1.4255                 1.3508
 IR Inten    --     79.5524                37.9587                 2.9530

                     28                     29                     30
                      A                      A                      A
 Frequencies --   1410.1819              1420.1832              1447.5857
 Red. masses --      1.4676                 1.3201                 1.4445
 Frc consts  --      1.7195                 1.5688                 1.7834
 IR Inten    --     26.9089                20.5220                37.7601

                     31                     32                     33
                      A                      A                      A
 Frequencies --   1483.4158              1487.1949              1496.4956
 Red. masses --      1.0607                 1.0465                 1.0540
 Frc consts  --      1.3753                 1.3637                 1.3907
 IR Inten    --      1.3028                 0.7163                 3.8617

                     34                     35                     36
                      A                      A                      A
 Frequencies --   1512.4555              1800.4174              3065.3495
 Red. masses --      1.0564                 6.6441                 1.0362
 Frc consts  --      1.4238                12.6892                 5.7367
 IR Inten    --      6.8706                73.4503                11.8747

                     37                     38                     39
                      A                      A                      A
 Frequencies --   3068.5852              3098.7294              3135.6420
 Red. masses --      1.0368                 1.0844                 1.1024
 Frc consts  --      5.7518                 6.1346                 6.3861
 IR Inten    --     17.2305                 3.9464                 3.1765

                     40                     41                     42
                      A                      A                      A
 Frequencies --   3146.2135              3152.3688              3161.3720
 Red. masses --      1.1010                 1.1028                 1.1002
 Frc consts  --      6.4213                 6.4570                 6.4783
 IR Inten    --     36.9318                17.2871                13.4767

                     43                     44                     45
                      A                      A                      A
 Frequencies --   3204.8123              3229.5309              3914.8174
 Red. masses --      1.0863                 1.0964                 1.0669
 Frc consts  --      6.5737                 6.7375                 9.6338
 IR Inten    --      1.9385                18.1589               100.8580

 - Thermochemistry -
 -------------------
 Temperature   298.150 Kelvin.  Pressure   1.00000 Atm.
 Atom     1 has atomic number  8 and mass  15.99491

 Molecular mass:   102.06808 amu.
 Principal axes and moments of inertia in atomic units:
                           1         2         3
     Eigenvalues --   406.97951 999.014601163.80519
           X            0.99980   0.01518  -0.01287
           Y           -0.01473   0.99931   0.03395
           Z            0.01337  -0.03376   0.99934
 This molecule is an asymmetric top.
 Rotational symmetry number  1.
 Rotational temperatures (Kelvin)      0.21282     0.08670     0.07442
 Rotational constants (GHZ):           4.43448     1.80652     1.55072
 Zero-point vibrational energy     386713.6 (Joules/Mol)
                                   92.42676 (Kcal/Mol)
 Warning -- explicit consideration of  11 degrees of freedom as
           vibrations may cause significant error
 Vibrational temperatures:    123.14   172.24   196.56   255.65   295.13
          (Kelvin)            366.17   417.39   517.97   629.32   684.20
                              795.24  1088.83  1161.16  1206.07  1328.45
                             1338.40  1350.74  1378.97  1491.52  1657.02
                             1690.93  1712.56  1743.60  1830.25  1969.14
                             1978.78  1997.66  2028.94  2043.33  2082.75
                             2134.30  2139.74  2153.12  2176.09  2590.40
                             4410.35  4415.01  4458.38  4511.49  4526.70
                             4535.56  4548.51  4611.01  4646.57  5632.55

 Zero-point correction=                           0.147291 (Hartree/Particle)
 Thermal correction to Energy=                    0.155975
 Thermal correction to Enthalpy=                  0.156920
 Thermal correction to Gibbs Free Energy=         0.114382
 Sum of electronic and zero-point Energies=           -346.795112
 Sum of electronic and thermal Energies=              -346.786428
 Sum of electronic and thermal Enthalpies=            -346.785484
 Sum of electronic and thermal Free Energies=         -346.828022

                     E (Thermal)             CV                S
                      KCal/Mol        Cal/Mol-Kelvin    Cal/Mol-Kelvin
 Total                   97.876             30.393             89.529
 Electronic               0.000              0.000              0.000
 Translational            0.889              2.981             39.779
 Rotational               0.889              2.981             27.650
 Vibrational             96.099             24.432             22.099
 Vibration     1          0.601              1.959              3.759
 Vibration     2          0.609              1.933              3.105
 Vibration     3          0.614              1.917              2.851
 Vibration     4          0.628              1.870              2.353
 Vibration     5          0.640              1.833              2.087
 Vibration     6          0.665              1.755              1.699
 Vibration     7          0.686              1.692              1.473
 Vibration     8          0.735              1.555              1.122
 Vibration     9          0.798              1.389              0.835
 Vibration    10          0.832              1.304              0.722
 Vibration    11          0.908              1.134              0.539

                           ! Non-Optimized Parameters !
 Normal termination of Gaussian 16 at Fri Sep 27 19:42:00 2019.
