 Gaussian 16, Revision A.03,
 Gaussian 16:  EM64L-G16RevA.03 25-Dec-2016

 ----------------------------------------------------------------------
 #p m062x/cc-pVTZ opt=(calcfc,maxcycles=900,Tight) freq IOP(7/33=1,2/16
 =3) scf=(maxcycle=900)
 ----------------------------------------------------------------------

 ------------------------------
 Gaussian input prepared by ASE
 ------------------------------
 Symbolic Z-matrix:
 Charge =  0 Multiplicity = 1

 SCF Done:  E(RM062X) =  -190.835635432     A.U. after   13 cycles
 SCF Done:  E(RM062X) =  -190.846648303     A.U. after   12 cycles
 SCF Done:  E(RM062X) =  -190.847765508     A.U. after   13 cycles
 SCF Done:  E(RM062X) =  -190.847864500     A.U. after   11 cycles
 SCF Done:  E(RM062X) =  -190.847873803     A.U. after   10 cycles
 SCF Done:  E(RM062X) =  -190.847874758     A.U. after    8 cycles
 SCF Done:  E(RM062X) =  -190.847874842     A.U. after    6 cycles
 SCF Done:  E(RM062X) =  -190.847874837     A.U. after    6 cycles
 Optimization completed.
    -- Stationary point found.
 Normal termination of Gaussian 16 at Mon Sep 23 10:08:19 2019.

 ----------------------------------------------------------------------
 #P Geom=AllCheck Guess=TCheck SCRF=Check Test GenChk RM062X/CC-pVTZ Fr
 eq
 ----------------------------------------------------------------------

 Structure from the checkpoint file:  "/scratch/harms.n/gauss_scrdir/Gau-28029.chk"
 ------------------------------
 Gaussian input prepared by ASE
 ------------------------------
 Charge =  0 Multiplicity = 1

                         Standard orientation:
 ---------------------------------------------------------------------
 Center     Atomic      Atomic             Coordinates (Angstroms)
 Number     Number       Type             X           Y           Z
 ---------------------------------------------------------------------
      1          8           0        0.025466    0.602438   -0.016726
      2          8           0        1.148088   -0.266243   -0.103521
      3          6           0       -1.116429   -0.221599    0.020214
      4          1           0       -1.164955   -0.854862   -0.866249
      5          1           0       -1.962847    0.463331    0.033417
      6          1           0       -1.126509   -0.842399    0.918662
      7          1           0        1.564458   -0.126028    0.754865
 ---------------------------------------------------------------------

 SCF Done:  E(RM062X) =  -190.847874837     A.U. after    1 cycles

 The electronic state is 1-A.
 Alpha  occ. eigenvalues --  -19.68340 -19.67751 -10.58381  -1.26248  -1.02853
 Alpha  occ. eigenvalues --   -0.77062  -0.61771  -0.55985  -0.54953  -0.49222
 Alpha  occ. eigenvalues --   -0.44254  -0.38766  -0.34629
 Alpha virt. eigenvalues --    0.06470   0.08951   0.11407   0.14169   0.15159
 Alpha virt. eigenvalues --    0.19615   0.29747   0.30950   0.41604   0.44494
 Alpha virt. eigenvalues --    0.47517   0.48455   0.49261   0.51867   0.54031

 Mulliken charges:
               1
     1  O   -0.185810
     2  O   -0.266493
     3  C   -0.077695
     4  H    0.091026
     5  H    0.096898
     6  H    0.073397
     7  H    0.268679
 Sum of Mulliken charges =  -0.00000

 Dipole moment (field-independent basis, Debye):
    X=             -0.7278    Y=             -0.6705    Z=              1.4721  Tot=              1.7737
 Quadrupole moment (field-independent basis, Debye-Ang):
   XX=            -15.2021   YY=            -19.6812   ZZ=            -17.5011
   XY=              0.1681   XZ=              2.6869   YZ=             -0.1071

  Exact polarizability:  29.576  -1.748  20.855   1.115   0.094  20.782
 Approx polarizability:  30.852  -3.025  24.807   0.897   0.328  23.497

                      1                      2                      3
                      A                      A                      A
 Frequencies --    227.4600               256.2003               469.0867
 Red. masses --      1.0936                 1.2239                 3.3264
 Frc consts  --      0.0333                 0.0473                 0.4313
 IR Inten    --    103.4143                20.1927                 5.6388

                      4                      5                      6
                      A                      A                      A
 Frequencies --    959.0422              1120.0521              1186.1479
 Red. masses --      4.6857                 6.6243                 1.2663
 Frc consts  --      2.5392                 4.8963                 1.0497
 IR Inten    --     22.3652                15.1463                 2.5787

                      7                      8                      9
                      A                      A                      A
 Frequencies --   1230.6443              1405.6038              1461.3348
 Red. masses --      1.6604                 1.1433                 1.1551
 Frc consts  --      1.4816                 1.3309                 1.4534
 IR Inten    --      7.7473                51.5479                 2.2465

                     10                     11                     12
                      A                      A                      A
 Frequencies --   1478.1239              1520.7051              3046.0917
 Red. masses --      1.0467                 1.0584                 1.0314
 Frc consts  --      1.3473                 1.4420                 5.6384
 IR Inten    --      6.7072                 9.8851                32.4091

                     13                     14                     15
                      A                      A                      A
 Frequencies --   3117.8043              3152.4174              3836.7406
 Red. masses --      1.1054                 1.1034                 1.0684
 Frc consts  --      6.3310                 6.4607                 9.2663
 IR Inten    --     34.5746                12.3638                49.8473

 - Thermochemistry -
 -------------------
 Temperature   298.150 Kelvin.  Pressure   1.00000 Atm.
 Atom     1 has atomic number  8 and mass  15.99491

 Molecular mass:    48.02113 amu.
 Principal axes and moments of inertia in atomic units:
                           1         2         3
     Eigenvalues --    40.97703 168.79939 193.19580
           X            0.99938   0.02577   0.02393
           Y           -0.02537   0.99954  -0.01659
           Z           -0.02435   0.01598   0.99958
 This molecule is an asymmetric top.
 Rotational symmetry number  1.
 Rotational temperatures (Kelvin)      2.11372     0.51312     0.44832
 Rotational constants (GHZ):          44.04275    10.69163     9.34151
 Zero-point vibrational energy     146347.9 (Joules/Mol)
                                   34.97798 (Kcal/Mol)
 Warning -- explicit consideration of   3 degrees of freedom as
           vibrations may cause significant error
 Vibrational temperatures:    327.26   368.62   674.91  1379.85  1611.51
          (Kelvin)           1706.60  1770.62  2022.35  2102.53  2126.69
                             2187.96  4382.65  4485.83  4535.63  5520.21

 Zero-point correction=                           0.055741 (Hartree/Particle)
 Thermal correction to Energy=                    0.059940
 Thermal correction to Enthalpy=                  0.060884
 Thermal correction to Gibbs Free Energy=         0.030486
 Sum of electronic and zero-point Energies=           -190.792134
 Sum of electronic and thermal Energies=              -190.787935
 Sum of electronic and thermal Enthalpies=            -190.786991
 Sum of electronic and thermal Free Energies=         -190.817389

                     E (Thermal)             CV                S
                      KCal/Mol        Cal/Mol-Kelvin    Cal/Mol-Kelvin
 Total                   37.613             12.259             63.979
 Electronic               0.000              0.000              0.000
 Translational            0.889              2.981             37.531
 Rotational               0.889              2.981             21.818
 Vibrational             35.835              6.298              4.630
 Vibration     1          0.651              1.799              1.899
 Vibration     2          0.666              1.752              1.688
 Vibration     3          0.826              1.319              0.740

 Optimization completed.
    -- Stationary point found.
 Normal termination of Gaussian 16 at Mon Sep 23 10:11:59 2019.
