 Gaussian 16, Revision A.03,
 Gaussian 16:  EM64L-G16RevA.03 25-Dec-2016

 ----------------------------------------------------------------------
 #p m062x/cc-pVTZ opt=(calcfc,maxcycles=900,Tight) freq IOP(7/33=1,2/16
 =3) scf=(maxcycle=900)
 ----------------------------------------------------------------------

 ------------------------------
 Gaussian input prepared by ASE
 ------------------------------
 Symbolic Z-matrix:
 Charge =  0 Multiplicity = 1

 SCF Done:  E(RM062X) =  -276.292138551     A.U. after   11 cycles

  Exact polarizability:   0.000   0.000   0.000   0.000   0.000   0.000
 Approx polarizability: 100.652  -0.111  97.625  -0.282  -0.153  96.485

 SCF Done:  E(RM062X) =  -276.316879114     A.U. after   11 cycles
 SCF Done:  E(RM062X) =  -276.317859354     A.U. after   10 cycles
 SCF Done:  E(RM062X) =  -276.324169480     A.U. after   10 cycles
 SCF Done:  E(RM062X) =  -276.321867238     A.U. after   10 cycles
 SCF Done:  E(RM062X) =  -276.325689645     A.U. after   10 cycles
 SCF Done:  E(RM062X) =  -276.316086736     A.U. after   11 cycles
 SCF Done:  E(RM062X) =  -276.327801067     A.U. after    9 cycles
 SCF Done:  E(RM062X) =  -276.329635170     A.U. after    9 cycles
 SCF Done:  E(RM062X) =  -276.332207645     A.U. after   10 cycles
 SCF Done:  E(RM062X) =  -276.339773458     A.U. after    9 cycles
 SCF Done:  E(RM062X) =  -276.339838606     A.U. after    9 cycles
 SCF Done:  E(RM062X) =  -276.339863298     A.U. after    8 cycles
 SCF Done:  E(RM062X) =  -276.339869054     A.U. after    7 cycles
 SCF Done:  E(RM062X) =  -276.339869728     A.U. after    6 cycles
 SCF Done:  E(RM062X) =  -276.339870107     A.U. after    6 cycles
 SCF Done:  E(RM062X) =  -276.339870146     A.U. after    5 cycles
 SCF Done:  E(RM062X) =  -276.339870156     A.U. after    5 cycles
 SCF Done:  E(RM062X) =  -276.339870157     A.U. after    3 cycles
 Optimization completed.
    -- Stationary point found.

 The electronic state is 1-A.
 Alpha  occ. eigenvalues --  -10.52628 -10.52628 -10.52451 -10.52445 -10.52330
 Alpha  occ. eigenvalues --  -10.51959 -10.51959  -0.91499  -0.87321  -0.81862
 Alpha  occ. eigenvalues --   -0.76809  -0.72031  -0.66549  -0.61579  -0.54973
 Alpha  occ. eigenvalues --   -0.54578  -0.50473  -0.49747  -0.46912  -0.46557
 Alpha  occ. eigenvalues --   -0.44388  -0.44125  -0.41596  -0.39971  -0.39737
 Alpha  occ. eigenvalues --   -0.39322  -0.36901  -0.36205  -0.36167
 Alpha virt. eigenvalues --    0.06371   0.08453   0.08747   0.09088   0.11575
 Alpha virt. eigenvalues --    0.12258   0.12869   0.14446   0.14615   0.15352
 Alpha virt. eigenvalues --    0.15490   0.17825   0.17866   0.18306   0.19744

 Mulliken charges:
               1
     1  C   -0.310318
     2  C   -0.342742
     3  C   -0.310317
     4  C   -0.255962
     5  C   -0.255959
     6  C   -0.370123
     7  C   -0.370125
     8  H    0.134963
     9  H    0.139392
    10  H    0.150855
    11  H    0.156233
    12  H    0.167076
    13  H    0.167076
    14  H    0.150855
    15  H    0.156232
    16  H    0.139390
    17  H    0.134963
    18  H    0.120440
    19  H    0.119146
    20  H    0.119668
    21  H    0.119146
    22  H    0.120441
    23  H    0.119669
 Sum of Mulliken charges =  -0.00000

 Dipole moment (field-independent basis, Debye):
    X=              0.0000    Y=              0.0000    Z=              0.0605  Tot=              0.0605
 Quadrupole moment (field-independent basis, Debye-Ang):
   XX=            -48.9331   YY=            -48.8348   ZZ=            -48.8310
   XY=             -0.5398   XZ=              0.0000   YZ=             -0.0000

 Normal termination of Gaussian 16 at Sat Sep 28 09:15:19 2019.

 ----------------------------------------------------------------------
 #P Geom=AllCheck Guess=TCheck SCRF=Check Test GenChk RM062X/CC-pVTZ Fr
 eq
 ----------------------------------------------------------------------

 Structure from the checkpoint file:  "/scratch/harms.n/gauss_scrdir/Gau-22757.chk"
 ------------------------------
 Gaussian input prepared by ASE
 ------------------------------
 Charge =  0 Multiplicity = 1

                         Standard orientation:
 ---------------------------------------------------------------------
 Center     Atomic      Atomic             Coordinates (Angstroms)
 Number     Number       Type             X           Y           Z
 ---------------------------------------------------------------------
      1          6           0       -0.767817    1.029460   -0.271581
      2          6           0        0.000001   -0.000100   -1.102396
      3          6           0        0.767841   -1.029528   -0.271438
      4          6           0       -1.749703    0.424984    0.732181
      5          6           0        1.749711   -0.424883    0.732237
      6          6           0       -2.797749   -0.472226    0.083125
      7          6           0        2.797720    0.472284    0.083062
      8          1           0       -2.248680    1.236807    1.264693
      9          1           0       -1.202853   -0.142701    1.489165
     10          1           0       -1.318114    1.686135   -0.950722
     11          1           0       -0.059976    1.668540    0.262522
     12          1           0        0.693131    0.526801   -1.761671
     13          1           0       -0.693142   -0.527101   -1.761577
     14          1           0        1.318150   -1.686288   -0.950487
     15          1           0        0.060018   -1.668547    0.262762
     16          1           0        1.202837    0.142879    1.489147
     17          1           0        2.248717   -1.236617    1.264857
     18          1           0       -3.324178    0.059898   -0.711597
     19          1           0       -2.345449   -1.360854   -0.358224
     20          1           0       -3.537577   -0.805716    0.810041
     21          1           0        2.345386    1.360839   -0.358399
     22          1           0        3.324165   -0.059919   -0.711597
     23          1           0        3.537541    0.805895    0.809930
 ---------------------------------------------------------------------

 SCF Done:  E(RM062X) =  -276.339870157     A.U. after    1 cycles
