 Gaussian 16, Revision A.03,
 Gaussian 16:  EM64L-G16RevA.03 25-Dec-2016

 ----------------------------------------------------------------------
 #p m062x/cc-pVTZ opt=(calcfc,maxcycles=900,Tight) freq IOP(7/33=1,2/16
 =3) scf=(maxcycle=900)
 ----------------------------------------------------------------------

 ------------------------------
 Gaussian input prepared by ASE
 ------------------------------
 Symbolic Z-matrix:
 Charge =  0 Multiplicity = 1

 SCF Done:  E(RM062X) =  -276.299958470     A.U. after   11 cycles
 SCF Done:  E(RM062X) =  -276.319699533     A.U. after   11 cycles
 SCF Done:  E(RM062X) =  -276.319369115     A.U. after   10 cycles
 SCF Done:  E(RM062X) =  -276.325192796     A.U. after   10 cycles
 SCF Done:  E(RM062X) =  -276.245983201     A.U. after   11 cycles
 SCF Done:  E(RM062X) =  -276.328513144     A.U. after   10 cycles
 SCF Done:  E(RM062X) =  -276.332209816     A.U. after   10 cycles
 SCF Done:  E(RM062X) =  -276.335195719     A.U. after   11 cycles
 SCF Done:  E(RM062X) =  -276.334916049     A.U. after    9 cycles
 SCF Done:  E(RM062X) =  -276.336250068     A.U. after    9 cycles
 SCF Done:  E(RM062X) =  -276.339121495     A.U. after    7 cycles
 SCF Done:  E(RM062X) =  -276.339122906     A.U. after    6 cycles
 SCF Done:  E(RM062X) =  -276.339123474     A.U. after    6 cycles
 SCF Done:  E(RM062X) =  -276.339123826     A.U. after    5 cycles
 SCF Done:  E(RM062X) =  -276.339123947     A.U. after    5 cycles
 SCF Done:  E(RM062X) =  -276.339123973     A.U. after    5 cycles
 SCF Done:  E(RM062X) =  -276.339123971     A.U. after    4 cycles
 SCF Done:  E(RM062X) =  -276.339123971     A.U. after    3 cycles
 SCF Done:  E(RM062X) =  -276.339123973     A.U. after    4 cycles
 Optimization completed.
    -- Stationary point found.
 Normal termination of Gaussian 16 at Fri Sep 27 16:47:10 2019.

 ----------------------------------------------------------------------
 #P Geom=AllCheck Guess=TCheck SCRF=Check Test GenChk RM062X/CC-pVTZ Fr
 eq
 ----------------------------------------------------------------------

 Structure from the checkpoint file:  "/scratch/harms.n/gauss_scrdir/Gau-19623.chk"
 ------------------------------
 Gaussian input prepared by ASE
 ------------------------------
 Charge =  0 Multiplicity = 1

                         Standard orientation:
 ---------------------------------------------------------------------
 Center     Atomic      Atomic             Coordinates (Angstroms)
 Number     Number       Type             X           Y           Z
 ---------------------------------------------------------------------
      1          6           0       -0.781576    0.242250    0.595010
      2          6           0       -0.050236   -0.562352   -0.474377
      3          6           0        1.273897   -1.159025    0.003836
      4          6           0       -2.117513    0.817975    0.128171
      5          6           0        2.285222   -0.140534    0.531337
      6          6           0       -3.153803   -0.243136   -0.226607
      7          6           0        2.609652    0.960578   -0.471757
      8          1           0       -1.944513    1.463780   -0.737218
      9          1           0       -2.519083    1.459977    0.914563
     10          1           0       -0.144339    1.064765    0.928150
     11          1           0       -0.947451   -0.393266    1.471802
     12          1           0        0.121859    0.076266   -1.346047
     13          1           0       -0.687884   -1.378634   -0.818645
     14          1           0        1.730060   -1.709006   -0.823780
     15          1           0        1.068255   -1.893443    0.787194
     16          1           0        1.915126    0.305568    1.456861
     17          1           0        3.202428   -0.669097    0.797804
     18          1           0       -2.850367   -0.829997   -1.092913
     19          1           0       -3.300895   -0.932298    0.607178
     20          1           0       -4.117077    0.209938   -0.459019
     21          1           0        1.741581    1.591277   -0.667475
     22          1           0        2.929402    0.534837   -1.424901
     23          1           0        3.409031    1.604796   -0.107231
 ---------------------------------------------------------------------

 SCF Done:  E(RM062X) =  -276.339123973     A.U. after    1 cycles

 The electronic state is 1-A.
 Alpha  occ. eigenvalues --  -10.52665 -10.52559 -10.52458 -10.52435 -10.52323
 Alpha  occ. eigenvalues --  -10.51951 -10.51899  -0.91310  -0.87600  -0.81997
 Alpha  occ. eigenvalues --   -0.76594  -0.71641  -0.66347  -0.62757  -0.54647
 Alpha  occ. eigenvalues --   -0.52953  -0.51678  -0.49442  -0.47872  -0.46215
 Alpha  occ. eigenvalues --   -0.44290  -0.43689  -0.42003  -0.39839  -0.39505
 Alpha  occ. eigenvalues --   -0.38762  -0.37294  -0.36629  -0.35962
 Alpha virt. eigenvalues --    0.06561   0.08308   0.08708   0.08974   0.11664
 Alpha virt. eigenvalues --    0.12348   0.12888   0.13849   0.14439   0.14948
 Alpha virt. eigenvalues --    0.15680   0.17216   0.17763   0.18086   0.18856

 Mulliken charges:
               1
     1  C   -0.287641
     2  C   -0.306510
     3  C   -0.285839
     4  C   -0.239426
     5  C   -0.257124
     6  C   -0.364975
     7  C   -0.372697
     8  H    0.125431
     9  H    0.126478
    10  H    0.147899
    11  H    0.145225
    12  H    0.151071
    13  H    0.157181
    14  H    0.141419
    15  H    0.138602
    16  H    0.137176
    17  H    0.134012
    18  H    0.116955
    19  H    0.114672
    20  H    0.117969
    21  H    0.118930
    22  H    0.121241
    23  H    0.119952
 Sum of Mulliken charges =  -0.00000

 Dipole moment (field-independent basis, Debye):
    X=              0.0254    Y=              0.0058    Z=              0.0552  Tot=              0.0610
 Quadrupole moment (field-independent basis, Debye-Ang):
   XX=            -48.9360   YY=            -48.9116   ZZ=            -48.7409
   XY=             -0.3316   XZ=             -0.1769   YZ=              0.1015

  Exact polarizability:  97.989   0.462  80.069   0.593  -0.293  76.193
 Approx polarizability:  98.185  -0.018  96.835   0.029  -0.385  97.046

                      1                      2                      3
                      A                      A                      A
 Frequencies --     40.6307                77.7639               124.8544
 Red. masses --      2.5979                 2.4731                 1.8387
 Frc consts  --      0.0025                 0.0088                 0.0169
 IR Inten    --      0.0082                 0.0173                 0.0379

                      4                      5                      6
                      A                      A                      A
 Frequencies --    173.3516               223.3925               250.9317
 Red. masses --      1.4668                 1.6107                 1.7444
 Frc consts  --      0.0260                 0.0474                 0.0647
 IR Inten    --      0.0398                 0.0928                 0.0048

                      7                      8                      9
                      A                      A                      A
 Frequencies --    292.4333               296.4136               357.9572
 Red. masses --      1.3206                 1.6712                 2.0738
 Frc consts  --      0.0665                 0.0865                 0.1566
 IR Inten    --      0.0372                 0.0105                 0.2856

                     10                     11                     12
                      A                      A                      A
 Frequencies --    436.8808               517.3265               722.9091
 Red. masses --      2.1326                 2.2524                 1.1483
 Frc consts  --      0.2398                 0.3552                 0.3536
 IR Inten    --      0.2297                 0.1760                 7.1540

                     13                     14                     15
                      A                      A                      A
 Frequencies --    751.5035               799.5646               848.6683
 Red. masses --      1.2564                 1.2520                 2.3205
 Frc consts  --      0.4181                 0.4716                 0.9847
 IR Inten    --      0.5407                 3.5337                 0.4737

                     16                     17                     18
                      A                      A                      A
 Frequencies --    858.3335               905.7710               956.9710
 Red. masses --      1.4039                 1.8958                 1.6493
 Frc consts  --      0.6094                 0.9164                 0.8899
 IR Inten    --      1.1597                 1.0017                 1.1361

                     19                     20                     21
                      A                      A                      A
 Frequencies --    961.6946              1013.2754              1045.0719
 Red. masses --      1.4625                 1.7061                 1.4161
 Frc consts  --      0.7969                 1.0321                 0.9112
 IR Inten    --      0.3377                 1.3018                 0.1192

                     22                     23                     24
                      A                      A                      A
 Frequencies --   1072.0150              1095.9976              1121.8261
 Red. masses --      1.3103                 2.2188                 2.0270
 Frc consts  --      0.8872                 1.5703                 1.5030
 IR Inten    --      0.2716                 0.3384                 0.0760

                     25                     26                     27
                      A                      A                      A
 Frequencies --   1154.7530              1178.2196              1229.8000
 Red. masses --      1.9629                 2.0883                 1.4461
 Frc consts  --      1.5421                 1.7080                 1.2886
 IR Inten    --      0.6478                 0.5070                 1.6231

                     28                     29                     30
                      A                      A                      A
 Frequencies --   1262.8429              1297.7465              1307.7981
 Red. masses --      1.3599                 1.2540                 1.2194
 Frc consts  --      1.2778                 1.2443                 1.2288
 IR Inten    --      1.2090                 0.3890                 2.2323

                     31                     32                     33
                      A                      A                      A
 Frequencies --   1334.5313              1342.1628              1378.6742
 Red. masses --      1.0920                 1.2445                 1.3605
 Frc consts  --      1.1459                 1.3209                 1.5236
 IR Inten    --      0.3108                 1.5295                 1.9861

                     34                     35                     36
                      A                      A                      A
 Frequencies --   1380.9376              1390.7420              1410.3762
 Red. masses --      1.4120                 1.5260                 1.4720
 Frc consts  --      1.5865                 1.7390                 1.7251
 IR Inten    --      1.2629                 0.4885                 0.7941

                     37                     38                     39
                      A                      A                      A
 Frequencies --   1416.2491              1417.9031              1481.1095
 Red. masses --      1.2983                 1.3613                 1.0709
 Frc consts  --      1.5343                 1.6125                 1.3841
 IR Inten    --      7.2781                 6.3415                 0.2353

                     40                     41                     42
                      A                      A                      A
 Frequencies --   1490.8466              1494.1137              1497.8116
 Red. masses --      1.0762                 1.0705                 1.0605
 Frc consts  --      1.4093                 1.4080                 1.4018
 IR Inten    --      2.7729                 0.7820                 2.3323

                     43                     44                     45
                      A                      A                      A
 Frequencies --   1501.7889              1504.9530              1508.7835
 Red. masses --      1.0702                 1.0628                 1.0593
 Frc consts  --      1.4221                 1.4182                 1.4208
 IR Inten    --      7.9251                 5.6650                 7.3863

                     46                     47                     48
                      A                      A                      A
 Frequencies --   1513.2467              1518.8606              3032.1443
 Red. masses --      1.0623                 1.0774                 1.0656
 Frc consts  --      1.4332                 1.4644                 5.7721
 IR Inten    --      9.7039                 1.6870                 7.4855

                     49                     50                     51
                      A                      A                      A
 Frequencies --   3043.6877              3047.7206              3050.7114
 Red. masses --      1.0611                 1.0637                 1.0614
 Frc consts  --      5.7916                 5.8211                 5.8200
 IR Inten    --     28.9305                10.9202                23.9940

                     52                     53                     54
                      A                      A                      A
 Frequencies --   3056.9341              3060.0579              3061.8230
 Red. masses --      1.0422                 1.0384                 1.0633
 Frc consts  --      5.7380                 5.7287                 5.8731
 IR Inten    --     23.9068                20.3237                20.6091

                     55                     56                     57
                      A                      A                      A
 Frequencies --   3077.9570              3080.4812              3087.2480
 Red. masses --      1.0932                 1.0966                 1.0990
 Frc consts  --      6.1020                 6.1308                 6.1714
 IR Inten    --      6.1461                30.6270                16.3712

                     58                     59                     60
                      A                      A                      A
 Frequencies --   3095.8453              3101.0406              3124.1721
 Red. masses --      1.1014                 1.1010                 1.1019
 Frc consts  --      6.2194                 6.2381                 6.3367
 IR Inten    --     30.1069                73.6071                43.5129

                     61                     62                     63
                      A                      A                      A
 Frequencies --   3127.2551              3132.7606              3138.8334
 Red. masses --      1.1003                 1.1013                 1.1014
 Frc consts  --      6.3398                 6.3683                 6.3936
 IR Inten    --     33.5001                32.7499                35.0105

 - Thermochemistry -
 -------------------
 Temperature   298.150 Kelvin.  Pressure   1.00000 Atm.
 Atom     1 has atomic number  6 and mass  12.00000

 Molecular mass:   100.12520 amu.
 Principal axes and moments of inertia in atomic units:
                           1         2         3
     Eigenvalues --   326.656851653.546011772.05512
           X            0.99998   0.00668   0.00011
           Y           -0.00668   0.99995  -0.00698
           Z           -0.00016   0.00698   0.99998
 This molecule is an asymmetric top.
 Rotational symmetry number  1.
 Rotational temperatures (Kelvin)      0.26515     0.05238     0.04888
 Rotational constants (GHZ):           5.52488     1.09144     1.01845
 Zero-point vibrational energy     575873.1 (Joules/Mol)
                                  137.63697 (Kcal/Mol)
 Warning -- explicit consideration of  11 degrees of freedom as
           vibrations may cause significant error
 Vibrational temperatures:     58.46   111.88   179.64   249.41   321.41
          (Kelvin)            361.03   420.75   426.47   515.02   628.57
                              744.32  1040.10  1081.25  1150.40  1221.04
                             1234.95  1303.20  1376.87  1383.66  1457.88
                             1503.63  1542.39  1576.90  1614.06  1661.43
                             1695.20  1769.41  1816.95  1867.17  1881.63
                             1920.09  1931.07  1983.60  1986.86  2000.97
                             2029.22  2037.67  2040.05  2130.99  2145.00
                             2149.70  2155.02  2160.74  2165.29  2170.80
                             2177.22  2185.30  4362.58  4379.19  4384.99
                             4389.29  4398.25  4402.74  4405.28  4428.49
                             4432.13  4441.86  4454.23  4461.71  4494.99
                             4499.42  4507.34  4516.08

 Zero-point correction=                           0.219338 (Hartree/Particle)
 Thermal correction to Energy=                    0.228681
 Thermal correction to Enthalpy=                  0.229626
 Thermal correction to Gibbs Free Energy=         0.184929
 Sum of electronic and zero-point Energies=           -276.119786
 Sum of electronic and thermal Energies=              -276.110443
 Sum of electronic and thermal Enthalpies=            -276.109498
 Sum of electronic and thermal Free Energies=         -276.154195

                     E (Thermal)             CV                S
                      KCal/Mol        Cal/Mol-Kelvin    Cal/Mol-Kelvin
 Total                  143.500             33.668             94.071
 Electronic               0.000              0.000              0.000
 Translational            0.889              2.981             39.722
 Rotational               0.889              2.981             28.350
 Vibrational            141.722             27.707             25.999
 Vibration     1          0.594              1.981              5.228
 Vibration     2          0.599              1.964              3.947
 Vibration     3          0.610              1.928              3.024
 Vibration     4          0.627              1.875              2.399
 Vibration     5          0.649              1.805              1.931
 Vibration     6          0.663              1.761              1.724
 Vibration     7          0.688              1.688              1.460
 Vibration     8          0.690              1.680              1.437
 Vibration     9          0.733              1.559              1.131
 Vibration    10          0.797              1.390              0.836
 Vibration    11          0.872              1.212              0.616

                           ! Non-Optimized Parameters !
 Normal termination of Gaussian 16 at Fri Sep 27 20:29:43 2019.
