 Gaussian 16, Revision A.03,
 Gaussian 16:  EM64L-G16RevA.03 25-Dec-2016

 ----------------------------------------------------------------------
 #p m062x/cc-pVTZ opt=(calcfc,maxcycles=900,Tight) freq IOP(7/33=1,2/16
 =3) scf=(maxcycle=900)
 ----------------------------------------------------------------------

 ------------------------------
 Gaussian input prepared by ASE
 ------------------------------
 Symbolic Z-matrix:
 Charge =  0 Multiplicity = 1

 SCF Done:  E(RM062X) =  -276.296715798     A.U. after   11 cycles
 SCF Done:  E(RM062X) =  -276.315960053     A.U. after   10 cycles
 SCF Done:  E(RM062X) =  -276.318073460     A.U. after   10 cycles
 SCF Done:  E(RM062X) =  -276.319854838     A.U. after   10 cycles
 SCF Done:  E(RM062X) =  -276.316754860     A.U. after   10 cycles
 SCF Done:  E(RM062X) =  -276.327348376     A.U. after   10 cycles
 SCF Done:  E(RM062X) =  -276.332392724     A.U. after   11 cycles
 SCF Done:  E(RM062X) =  -276.334805732     A.U. after   11 cycles
 SCF Done:  E(RM062X) =  -276.336155648     A.U. after   10 cycles
 SCF Done:  E(RM062X) =  -276.335628020     A.U. after   10 cycles
 SCF Done:  E(RM062X) =  -276.337144379     A.U. after    8 cycles
 SCF Done:  E(RM062X) =  -276.337157395     A.U. after    7 cycles
 SCF Done:  E(RM062X) =  -276.337161404     A.U. after    8 cycles
 SCF Done:  E(RM062X) =  -276.337161464     A.U. after    5 cycles
 SCF Done:  E(RM062X) =  -276.337161464     A.U. after    5 cycles
 SCF Done:  E(RM062X) =  -276.337161459     A.U. after    4 cycles
 SCF Done:  E(RM062X) =  -276.337161459     A.U. after    3 cycles
 SCF Done:  E(RM062X) =  -276.337161466     A.U. after    5 cycles
 SCF Done:  E(RM062X) =  -276.337161459     A.U. after    4 cycles
 Optimization completed.
    -- Stationary point found.
 Normal termination of Gaussian 16 at Sat Sep 28 03:20:16 2019.

 ----------------------------------------------------------------------
 #P Geom=AllCheck Guess=TCheck SCRF=Check Test GenChk RM062X/CC-pVTZ Fr
 eq
 ----------------------------------------------------------------------

 Structure from the checkpoint file:  "/scratch/harms.n/gauss_scrdir/Gau-10578.chk"
 ------------------------------
 Gaussian input prepared by ASE
 ------------------------------
 Charge =  0 Multiplicity = 1

                         Standard orientation:
 ---------------------------------------------------------------------
 Center     Atomic      Atomic             Coordinates (Angstroms)
 Number     Number       Type             X           Y           Z
 ---------------------------------------------------------------------
      1          6           0       -1.007006   -0.956764   -0.050224
      2          6           0        0.358883   -1.300841    0.558970
      3          6           0        1.555636   -0.976650   -0.337984
      4          6           0       -1.555588    0.416193    0.332739
      5          6           0        1.717529    0.493543   -0.719626
      6          6           0       -2.924402    0.679486   -0.281708
      7          6           0        1.971034    1.403819    0.476683
      8          1           0       -0.862016    1.200847    0.026821
      9          1           0       -1.622782    0.475986    1.422497
     10          1           0       -1.741907   -1.703992    0.259632
     11          1           0       -0.947506   -1.029799   -1.141597
     12          1           0        0.394949   -2.369066    0.779069
     13          1           0        0.463359   -0.794861    1.522771
     14          1           0        1.469136   -1.571197   -1.251438
     15          1           0        2.470207   -1.309532    0.161166
     16          1           0        2.553670    0.580400   -1.416419
     17          1           0        0.834912    0.831618   -1.268023
     18          1           0       -2.871416    0.651318   -1.371205
     19          1           0       -3.642933   -0.079095    0.032701
     20          1           0       -3.316195    1.653656    0.009082
     21          1           0        2.855668    1.076813    1.026195
     22          1           0        1.132012    1.399673    1.172748
     23          1           0        2.134333    2.434511    0.162900
 ---------------------------------------------------------------------

 SCF Done:  E(RM062X) =  -276.337161459     A.U. after    1 cycles

 The electronic state is 1-A.
 Alpha  occ. eigenvalues --  -10.52625 -10.52613 -10.52494 -10.52482 -10.52413
 Alpha  occ. eigenvalues --  -10.51944 -10.51913  -0.91240  -0.87444  -0.82497
 Alpha  occ. eigenvalues --   -0.76449  -0.71054  -0.66619  -0.63220  -0.55217
 Alpha  occ. eigenvalues --   -0.52800  -0.51050  -0.49075  -0.47575  -0.46370
 Alpha  occ. eigenvalues --   -0.45353  -0.42746  -0.42448  -0.40092  -0.39117
 Alpha  occ. eigenvalues --   -0.39059  -0.37186  -0.36353  -0.36166
 Alpha virt. eigenvalues --    0.06734   0.07938   0.08665   0.09224   0.11533
 Alpha virt. eigenvalues --    0.12871   0.13432   0.13557   0.14154   0.15067
 Alpha virt. eigenvalues --    0.15600   0.16832   0.17862   0.17975   0.19601

 Mulliken charges:
               1
     1  C   -0.267367
     2  C   -0.289338
     3  C   -0.271845
     4  C   -0.269546
     5  C   -0.276180
     6  C   -0.355006
     7  C   -0.379386
     8  H    0.143479
     9  H    0.135564
    10  H    0.136705
    11  H    0.141347
    12  H    0.140214
    13  H    0.144706
    14  H    0.139796
    15  H    0.138839
    16  H    0.139172
    17  H    0.143451
    18  H    0.110052
    19  H    0.110650
    20  H    0.114338
    21  H    0.121084
    22  H    0.125440
    23  H    0.123828
 Sum of Mulliken charges =  -0.00000

 Dipole moment (field-independent basis, Debye):
    X=              0.0584    Y=             -0.0423    Z=             -0.0143  Tot=              0.0735
 Quadrupole moment (field-independent basis, Debye-Ang):
   XX=            -49.0792   YY=            -48.8036   ZZ=            -48.8405
   XY=              0.0495   XZ=             -0.4554   YZ=             -0.2557

  Exact polarizability:  93.841  -0.542  83.818   0.667   0.379  76.328
 Approx polarizability:  98.196   0.095  97.180   0.422   0.184  97.265

                      1                      2                      3
                      A                      A                      A
 Frequencies --     61.1507                99.3739               107.7796
 Red. masses --      1.6334                 2.8924                 2.1976
 Frc consts  --      0.0036                 0.0168                 0.0150
 IR Inten    --      0.0071                 0.0199                 0.0165

                      4                      5                      6
                      A                      A                      A
 Frequencies --    187.7620               214.9766               247.2466
 Red. masses --      1.4975                 1.9653                 1.1141
 Frc consts  --      0.0311                 0.0535                 0.0401
 IR Inten    --      0.0104                 0.1015                 0.0026

                      7                      8                      9
                      A                      A                      A
 Frequencies --    269.8393               299.9452               369.2347
 Red. masses --      1.7355                 1.9345                 1.9467
 Frc consts  --      0.0745                 0.1025                 0.1564
 IR Inten    --      0.0167                 0.0784                 0.1484

                     10                     11                     12
                      A                      A                      A
 Frequencies --    418.6539               500.7018               729.9652
 Red. masses --      2.2726                 1.9116                 1.1700
 Frc consts  --      0.2347                 0.2824                 0.3673
 IR Inten    --      0.2103                 0.1485                 3.8217

                     13                     14                     15
                      A                      A                      A
 Frequencies --    751.2047               788.8707               858.7102
 Red. masses --      1.2077                 1.8369                 1.5187
 Frc consts  --      0.4015                 0.6735                 0.6598
 IR Inten    --      4.3521                 1.2536                 1.1941

                     16                     17                     18
                      A                      A                      A
 Frequencies --    874.4948               882.6565               952.1391
 Red. masses --      1.4148                 1.6897                 1.6708
 Frc consts  --      0.6375                 0.7756                 0.8924
 IR Inten    --      0.4525                 0.3412                 4.3297

                     19                     20                     21
                      A                      A                      A
 Frequencies --    966.7033              1030.4017              1061.0296
 Red. masses --      1.4721                 2.1811                 1.4468
 Frc consts  --      0.8105                 1.3644                 0.9596
 IR Inten    --      1.1444                 0.1081                 0.3299

                     22                     23                     24
                      A                      A                      A
 Frequencies --   1074.1554              1080.5093              1125.0197
 Red. masses --      1.5573                 1.8568                 1.9548
 Frc consts  --      1.0587                 1.2772                 1.4577
 IR Inten    --      0.8579                 0.2209                 0.2104

                     25                     26                     27
                      A                      A                      A
 Frequencies --   1151.8097              1180.6969              1233.0010
 Red. masses --      2.0688                 2.0377                 1.3748
 Frc consts  --      1.6171                 1.6737                 1.2315
 IR Inten    --      0.5315                 0.5352                 0.3581

                     28                     29                     30
                      A                      A                      A
 Frequencies --   1264.2228              1284.0914              1317.7880
 Red. masses --      1.3188                 1.2424                 1.2540
 Frc consts  --      1.2419                 1.2069                 1.2831
 IR Inten    --      0.0228                 0.7304                 1.5586

                     31                     32                     33
                      A                      A                      A
 Frequencies --   1331.7394              1337.2719              1366.1413
 Red. masses --      1.1154                 1.1531                 1.4034
 Frc consts  --      1.1655                 1.2149                 1.5432
 IR Inten    --      0.4543                 0.3643                 2.1851

                     34                     35                     36
                      A                      A                      A
 Frequencies --   1391.4315              1395.9903              1401.0338
 Red. masses --      1.3894                 1.5112                 1.6056
 Frc consts  --      1.5849                 1.7351                 1.8569
 IR Inten    --      0.2836                 1.0513                 1.1070

                     37                     38                     39
                      A                      A                      A
 Frequencies --   1412.5889              1417.4718              1484.3519
 Red. masses --      1.2607                 1.2988                 1.0792
 Frc consts  --      1.4821                 1.5375                 1.4010
 IR Inten    --      1.9507                 8.4316                 0.8867

                     40                     41                     42
                      A                      A                      A
 Frequencies --   1486.4776              1496.4715              1498.6219
 Red. masses --      1.0733                 1.0731                 1.0517
 Frc consts  --      1.3973                 1.4159                 1.3916
 IR Inten    --      2.3755                 7.2013                 0.4480

                     43                     44                     45
                      A                      A                      A
 Frequencies --   1499.5374              1503.2667              1507.9260
 Red. masses --      1.0742                 1.0398                 1.0650
 Frc consts  --      1.4231                 1.3844                 1.4268
 IR Inten    --      2.3589                 7.4637                11.0059

                     46                     47                     48
                      A                      A                      A
 Frequencies --   1513.2862              1520.2014              3032.6583
 Red. masses --      1.0645                 1.0851                 1.0634
 Frc consts  --      1.4363                 1.4774                 5.7622
 IR Inten    --      4.0323                 5.4864                10.9116

                     49                     50                     51
                      A                      A                      A
 Frequencies --   3041.2945              3051.0697              3053.8839
 Red. masses --      1.0612                 1.0642                 1.0606
 Frc consts  --      5.7834                 5.8371                 5.8277
 IR Inten    --     24.8059                12.5318                13.1623

                     52                     53                     54
                      A                      A                      A
 Frequencies --   3057.2043              3058.2781              3060.9181
 Red. masses --      1.0430                 1.0641                 1.0425
 Frc consts  --      5.7438                 5.8639                 5.7548
 IR Inten    --     42.9584                16.9433                18.7261

                     55                     56                     57
                      A                      A                      A
 Frequencies --   3072.2050              3080.4831              3090.5504
 Red. masses --      1.0926                 1.0949                 1.1002
 Frc consts  --      6.0758                 6.1215                 6.1914
 IR Inten    --      4.7207                46.7836                35.4554

                     58                     59                     60
                      A                      A                      A
 Frequencies --   3095.3635              3102.9700              3125.4331
 Red. masses --      1.1013                 1.0973                 1.1021
 Frc consts  --      6.2169                 6.2251                 6.3429
 IR Inten    --     54.5515                10.3370                54.4739

                     61                     62                     63
                      A                      A                      A
 Frequencies --   3127.4035              3133.3613              3136.0139
 Red. masses --      1.1013                 1.1012                 1.1013
 Frc consts  --      6.3465                 6.3701                 6.3812
 IR Inten    --     41.9147                34.5819                19.1748

 - Thermochemistry -
 -------------------
 Temperature   298.150 Kelvin.  Pressure   1.00000 Atm.
 Atom     1 has atomic number  6 and mass  12.00000

 Molecular mass:   100.12520 amu.
 Principal axes and moments of inertia in atomic units:
                           1         2         3
     Eigenvalues --   495.615971281.996741546.58391
           X            0.99999   0.00105   0.00536
           Y           -0.00109   0.99997   0.00711
           Z           -0.00535  -0.00711   0.99996
 This molecule is an asymmetric top.
 Rotational symmetry number  1.
 Warning -- assumption of classical behavior for rotation
           may cause significant error
 Rotational temperatures (Kelvin)      0.17476     0.06756     0.05600
 Rotational constants (GHZ):           3.64141     1.40776     1.16692
 Zero-point vibrational energy     575804.7 (Joules/Mol)
                                  137.62064 (Kcal/Mol)
 Warning -- explicit consideration of  11 degrees of freedom as
           vibrations may cause significant error
 Vibrational temperatures:     87.98   142.98   155.07   270.15   309.30
          (Kelvin)            355.73   388.24   431.55   531.25   602.35
                              720.40  1050.26  1080.82  1135.01  1235.49
                             1258.20  1269.95  1369.92  1390.87  1482.52
                             1526.58  1545.47  1554.61  1618.65  1657.20
                             1698.76  1774.01  1818.93  1847.52  1896.00
                             1916.08  1924.04  1965.57  2001.96  2008.52
                             2015.78  2032.40  2039.43  2135.65  2138.71
                             2153.09  2156.18  2157.50  2162.87  2169.57
                             2177.28  2187.23  4363.32  4375.74  4389.81
                             4393.86  4398.64  4400.18  4403.98  4420.22
                             4432.13  4446.61  4453.54  4464.48  4496.80
                             4499.64  4508.21  4512.02

 Zero-point correction=                           0.219312 (Hartree/Particle)
 Thermal correction to Energy=                    0.228635
 Thermal correction to Enthalpy=                  0.229579
 Thermal correction to Gibbs Free Energy=         0.185296
 Sum of electronic and zero-point Energies=           -276.117849
 Sum of electronic and thermal Energies=              -276.108527
 Sum of electronic and thermal Enthalpies=            -276.107583
 Sum of electronic and thermal Free Energies=         -276.151866

                     E (Thermal)             CV                S
                      KCal/Mol        Cal/Mol-Kelvin    Cal/Mol-Kelvin
 Total                  143.470             33.730             93.201
 Electronic               0.000              0.000              0.000
 Translational            0.889              2.981             39.722
 Rotational               0.889              2.981             28.376
 Vibrational            141.693             27.769             25.103
 Vibration     1          0.597              1.973              4.420
 Vibration     2          0.604              1.950              3.467
 Vibration     3          0.606              1.943              3.309
 Vibration     4          0.632              1.857              2.250
 Vibration     5          0.645              1.818              2.001
 Vibration     6          0.661              1.767              1.750
 Vibration     7          0.674              1.729              1.597
 Vibration     8          0.692              1.674              1.417
 Vibration     9          0.742              1.535              1.083
 Vibration    10          0.782              1.430              0.897
 Vibration    11          0.856              1.248              0.656

 Optimization completed.
    -- Stationary point found.
 Normal termination of Gaussian 16 at Sat Sep 28 06:41:50 2019.
