 Gaussian 16, Revision A.03,
 Gaussian 16:  EM64L-G16RevA.03 25-Dec-2016

 ----------------------------------------------------------------------
 #p m062x/cc-pVTZ opt=(calcfc,maxcycles=900,Tight) freq IOP(7/33=1,2/16
 =3) scf=(maxcycle=900)
 ----------------------------------------------------------------------

 ------------------------------
 Gaussian input prepared by ASE
 ------------------------------
 Symbolic Z-matrix:
 Charge =  0 Multiplicity = 1

 SCF Done:  E(RM062X) =  -276.302796938     A.U. after   11 cycles
 SCF Done:  E(RM062X) =  -276.321413758     A.U. after   11 cycles
 SCF Done:  E(RM062X) =  -276.325877457     A.U. after   11 cycles
 SCF Done:  E(RM062X) =  -276.327909530     A.U. after   11 cycles
 SCF Done:  E(RM062X) =  -276.329590494     A.U. after   10 cycles
 SCF Done:  E(RM062X) =  -276.330373076     A.U. after    9 cycles
 SCF Done:  E(RM062X) =  -276.330694852     A.U. after    9 cycles
 SCF Done:  E(RM062X) =  -276.330801520     A.U. after   10 cycles
 SCF Done:  E(RM062X) =  -276.332576383     A.U. after    9 cycles
 SCF Done:  E(RM062X) =  -276.334371802     A.U. after   10 cycles
 SCF Done:  E(RM062X) =  -276.336541275     A.U. after    6 cycles
 SCF Done:  E(RM062X) =  -276.336552167     A.U. after    7 cycles
 SCF Done:  E(RM062X) =  -276.336556028     A.U. after    7 cycles
 SCF Done:  E(RM062X) =  -276.336556537     A.U. after    6 cycles
 SCF Done:  E(RM062X) =  -276.336556562     A.U. after    5 cycles
 SCF Done:  E(RM062X) =  -276.336556565     A.U. after    3 cycles
 SCF Done:  E(RM062X) =  -276.336556565     A.U. after    3 cycles
 SCF Done:  E(RM062X) =  -276.336556565     A.U. after    3 cycles
 SCF Done:  E(RM062X) =  -276.336556566     A.U. after    2 cycles
 Optimization completed on the basis of negligible forces.
    -- Stationary point found.
 Normal termination of Gaussian 16 at Fri Sep 27 23:24:24 2019.

 ----------------------------------------------------------------------
 #P Geom=AllCheck Guess=TCheck SCRF=Check Test GenChk RM062X/CC-pVTZ Fr
 eq
 ----------------------------------------------------------------------

 Structure from the checkpoint file:  "/scratch/harms.n/gauss_scrdir/Gau-7012.chk"
 ------------------------------
 Gaussian input prepared by ASE
 ------------------------------
 Charge =  0 Multiplicity = 1

                         Standard orientation:
 ---------------------------------------------------------------------
 Center     Atomic      Atomic             Coordinates (Angstroms)
 Number     Number       Type             X           Y           Z
 ---------------------------------------------------------------------
      1          6           0        0.815167   -0.271292   -0.661188
      2          6           0        0.060509    0.737911    0.203805
      3          6           0       -1.329155    1.098002   -0.341331
      4          6           0        2.082855   -0.815909   -0.008041
      5          6           0       -2.472225    0.306032    0.294213
      6          6           0        3.107392    0.263699    0.324633
      7          6           0       -2.355110   -1.205163    0.132660
      8          1           0        2.537982   -1.551909   -0.673636
      9          1           0        1.810236   -1.352851    0.905062
     10          1           0        1.074135    0.207954   -1.610783
     11          1           0        0.154989   -1.103636   -0.911549
     12          1           0        0.663448    1.642608    0.293094
     13          1           0       -0.039179    0.340680    1.220540
     14          1           0       -1.340240    0.942460   -1.424837
     15          1           0       -1.524287    2.159974   -0.184416
     16          1           0       -2.515669    0.549753    1.359190
     17          1           0       -3.417863    0.641874   -0.136302
     18          1           0        3.349191    0.852635   -0.562357
     19          1           0        2.734061    0.948529    1.085723
     20          1           0        4.033012   -0.171976    0.699371
     21          1           0       -1.464588   -1.590918    0.630760
     22          1           0       -2.293648   -1.482373   -0.921318
     23          1           0       -3.218183   -1.712479    0.562953
 ---------------------------------------------------------------------

 SCF Done:  E(RM062X) =  -276.336556566     A.U. after    1 cycles

 The electronic state is 1-A.
 Alpha  occ. eigenvalues --  -10.52683 -10.52610 -10.52460 -10.52409 -10.52344
 Alpha  occ. eigenvalues --  -10.51984 -10.51888  -0.91195  -0.87650  -0.81977
 Alpha  occ. eigenvalues --   -0.76744  -0.71339  -0.65386  -0.64191  -0.54606
 Alpha  occ. eigenvalues --   -0.52740  -0.50953  -0.49667  -0.48499  -0.45817
 Alpha  occ. eigenvalues --   -0.44232  -0.43487  -0.41841  -0.40721  -0.39475
 Alpha  occ. eigenvalues --   -0.38471  -0.37475  -0.36196  -0.35964
 Alpha virt. eigenvalues --    0.06854   0.08118   0.08799   0.09072   0.11451
 Alpha virt. eigenvalues --    0.12320   0.12693   0.13562   0.14003   0.15198
 Alpha virt. eigenvalues --    0.15965   0.16695   0.17307   0.18239   0.19276

 Mulliken charges:
               1
     1  C   -0.301023
     2  C   -0.299408
     3  C   -0.272239
     4  C   -0.235990
     5  C   -0.226483
     6  C   -0.369972
     7  C   -0.389687
     8  H    0.125802
     9  H    0.125750
    10  H    0.145307
    11  H    0.162567
    12  H    0.149753
    13  H    0.143937
    14  H    0.135858
    15  H    0.131932
    16  H    0.125947
    17  H    0.125687
    18  H    0.116453
    19  H    0.119956
    20  H    0.118390
    21  H    0.121319
    22  H    0.123137
    23  H    0.123007
 Sum of Mulliken charges =   0.00000

 Dipole moment (field-independent basis, Debye):
    X=             -0.0653    Y=              0.0270    Z=             -0.0022  Tot=              0.0707
 Quadrupole moment (field-independent basis, Debye-Ang):
   XX=            -48.9011   YY=            -49.0523   ZZ=            -48.6014
   XY=             -0.2502   XZ=             -0.1963   YZ=             -0.0724

  Exact polarizability:  97.743   0.113  81.409   0.214  -0.001  75.285
 Approx polarizability:  98.169  -0.009  96.661   0.048  -0.265  97.362

                      1                      2                      3
                      A                      A                      A
 Frequencies --     47.9607                90.0062               137.3557
 Red. masses --      2.7961                 2.1949                 1.9539
 Frc consts  --      0.0038                 0.0105                 0.0217
 IR Inten    --      0.0064                 0.0535                 0.0064

                      4                      5                      6
                      A                      A                      A
 Frequencies --    146.2540               230.6198               264.0972
 Red. masses --      1.8916                 1.5105                 1.3883
 Frc consts  --      0.0238                 0.0473                 0.0570
 IR Inten    --      0.0052                 0.0518                 0.0989

                      7                      8                      9
                      A                      A                      A
 Frequencies --    304.6325               319.9951               327.2298
 Red. masses --      1.5236                 1.8150                 1.6897
 Frc consts  --      0.0833                 0.1095                 0.1066
 IR Inten    --      0.0376                 0.0572                 0.1459

                     10                     11                     12
                      A                      A                      A
 Frequencies --    431.6345               499.9565               733.2610
 Red. masses --      2.0960                 1.9502                 1.2452
 Frc consts  --      0.2301                 0.2872                 0.3945
 IR Inten    --      0.1614                 0.0830                 3.7751

                     13                     14                     15
                      A                      A                      A
 Frequencies --    770.7117               796.4179               831.1715
 Red. masses --      1.1693                 1.2706                 1.8746
 Frc consts  --      0.4092                 0.4748                 0.7630
 IR Inten    --      2.3840                 1.3066                 1.7747

                     16                     17                     18
                      A                      A                      A
 Frequencies --    876.9277               910.4061               949.0342
 Red. masses --      1.8260                 1.7681                 1.4290
 Frc consts  --      0.8273                 0.8634                 0.7583
 IR Inten    --      0.8249                 1.3126                 0.4867

                     19                     20                     21
                      A                      A                      A
 Frequencies --    962.4359              1016.5703              1065.7261
 Red. masses --      1.7742                 1.7514                 1.4645
 Frc consts  --      0.9683                 1.0663                 0.9800
 IR Inten    --      0.6966                 1.4988                 0.0050

                     22                     23                     24
                      A                      A                      A
 Frequencies --   1072.0954              1097.8980              1119.8945
 Red. masses --      1.3854                 2.2206                 2.0109
 Frc consts  --      0.9382                 1.5770                 1.4859
 IR Inten    --      1.2199                 0.6189                 0.3145

                     25                     26                     27
                      A                      A                      A
 Frequencies --   1149.9303              1184.5172              1237.3126
 Red. masses --      2.0345                 2.0149                 1.3923
 Frc consts  --      1.5851                 1.6656                 1.2559
 IR Inten    --      1.4839                 0.1462                 1.0028

                     28                     29                     30
                      A                      A                      A
 Frequencies --   1255.6875              1296.7151              1314.2273
 Red. masses --      1.3005                 1.2532                 1.1858
 Frc consts  --      1.2082                 1.2416                 1.2067
 IR Inten    --      0.7148                 0.1002                 1.1969

                     31                     32                     33
                      A                      A                      A
 Frequencies --   1325.0688              1342.9475              1379.0937
 Red. masses --      1.1652                 1.1808                 1.3828
 Frc consts  --      1.2053                 1.2547                 1.5495
 IR Inten    --      0.3817                 1.0231                 2.9526

                     34                     35                     36
                      A                      A                      A
 Frequencies --   1381.3632              1384.4403              1401.4099
 Red. masses --      1.3747                 1.4624                 1.5194
 Frc consts  --      1.5455                 1.6515                 1.7581
 IR Inten    --      0.1651                 0.2894                 1.4649

                     37                     38                     39
                      A                      A                      A
 Frequencies --   1415.7707              1417.0622              1485.9235
 Red. masses --      1.3084                 1.3318                 1.0695
 Frc consts  --      1.5452                 1.5756                 1.3914
 IR Inten    --      0.8416                10.2067                 1.6414

                     40                     41                     42
                      A                      A                      A
 Frequencies --   1490.3535              1493.2885              1494.8117
 Red. masses --      1.0684                 1.0619                 1.0747
 Frc consts  --      1.3982                 1.3952                 1.4149
 IR Inten    --      0.6350                 1.4716                 0.7085

                     43                     44                     45
                      A                      A                      A
 Frequencies --   1504.4304              1505.8512              1509.9011
 Red. masses --      1.0556                 1.0884                 1.0633
 Frc consts  --      1.4077                 1.4541                 1.4283
 IR Inten    --      5.7404                 8.5901                12.5419

                     46                     47                     48
                      A                      A                      A
 Frequencies --   1512.8803              1517.4285              3028.7081
 Red. masses --      1.0644                 1.0614                 1.0693
 Frc consts  --      1.4354                 1.4400                 5.7792
 IR Inten    --      6.4970                 3.2585                 4.1507

                     49                     50                     51
                      A                      A                      A
 Frequencies --   3039.8042              3044.3885              3049.6228
 Red. masses --      1.0682                 1.0673                 1.0595
 Frc consts  --      5.8156                 5.8281                 5.8054
 IR Inten    --      8.2088                16.0555                25.1524

                     52                     53                     54
                      A                      A                      A
 Frequencies --   3049.9376              3056.0723              3058.6341
 Red. masses --      1.0614                 1.0383                 1.0377
 Frc consts  --      5.8173                 5.7133                 5.7199
 IR Inten    --     47.9271                20.1373                23.6449

                     55                     56                     57
                      A                      A                      A
 Frequencies --   3081.6876              3086.4607              3089.0452
 Red. masses --      1.0958                 1.0999                 1.0967
 Frc consts  --      6.1314                 6.1737                 6.1657
 IR Inten    --     10.9480                18.7321                33.5830

                     58                     59                     60
                      A                      A                      A
 Frequencies --   3093.8225              3107.9149              3124.5452
 Red. masses --      1.0963                 1.0970                 1.1023
 Frc consts  --      6.1827                 6.2429                 6.3407
 IR Inten    --     17.2363                73.0619                38.8917

                     61                     62                     63
                      A                      A                      A
 Frequencies --   3126.0295              3130.2463              3136.5578
 Red. masses --      1.1005                 1.1011                 1.1017
 Frc consts  --      6.3363                 6.3567                 6.3859
 IR Inten    --     31.8528                33.1797                35.3546

 - Thermochemistry -
 -------------------
 Temperature   298.150 Kelvin.  Pressure   1.00000 Atm.
 Atom     1 has atomic number  6 and mass  12.00000

 Molecular mass:   100.12520 amu.
 Principal axes and moments of inertia in atomic units:
                           1         2         3
     Eigenvalues --   345.816141597.849171775.72006
           X            0.99997   0.00736   0.00182
           Y           -0.00736   0.99997   0.00276
           Z           -0.00180  -0.00277   0.99999
 This molecule is an asymmetric top.
 Rotational symmetry number  1.
 Rotational temperatures (Kelvin)      0.25046     0.05421     0.04878
 Rotational constants (GHZ):           5.21879     1.12948     1.01634
 Zero-point vibrational energy     576038.9 (Joules/Mol)
                                  137.67660 (Kcal/Mol)
 Warning -- explicit consideration of  11 degrees of freedom as
           vibrations may cause significant error
 Vibrational temperatures:     69.00   129.50   197.62   210.43   331.81
          (Kelvin)            379.98   438.30   460.40   470.81   621.03
                              719.33  1055.00  1108.88  1145.87  1195.87
                             1261.70  1309.87  1365.45  1384.73  1462.62
                             1533.34  1542.51  1579.63  1611.28  1654.49
                             1704.26  1780.22  1806.65  1865.68  1890.88
                             1906.48  1932.20  1984.21  1987.47  1991.90
                             2016.32  2036.98  2038.84  2137.91  2144.29
                             2148.51  2150.70  2164.54  2166.58  2172.41
                             2176.70  2183.24  4357.64  4373.60  4380.20
                             4387.73  4388.18  4397.01  4400.69  4433.86
                             4440.73  4444.45  4451.32  4471.60  4495.52
                             4497.66  4503.73  4512.81

 Zero-point correction=                           0.219402 (Hartree/Particle)
 Thermal correction to Energy=                    0.228696
 Thermal correction to Enthalpy=                  0.229640
 Thermal correction to Gibbs Free Energy=         0.185241
 Sum of electronic and zero-point Energies=           -276.117155
 Sum of electronic and thermal Energies=              -276.107860
 Sum of electronic and thermal Enthalpies=            -276.106916
 Sum of electronic and thermal Free Energies=         -276.151316

                     E (Thermal)             CV                S
                      KCal/Mol        Cal/Mol-Kelvin    Cal/Mol-Kelvin
 Total                  143.509             33.624             93.446
 Electronic               0.000              0.000              0.000
 Translational            0.889              2.981             39.722
 Rotational               0.889              2.981             28.375
 Vibrational            141.731             27.662             25.350
 Vibration     1          0.595              1.978              4.900
 Vibration     2          0.602              1.956              3.660
 Vibration     3          0.614              1.916              2.840
 Vibration     4          0.617              1.907              2.720
 Vibration     5          0.652              1.794              1.874
 Vibration     6          0.671              1.739              1.635
 Vibration     7          0.696              1.665              1.391
 Vibration     8          0.706              1.635              1.310
 Vibration     9          0.711              1.621              1.274
 Vibration    10          0.793              1.401              0.853
 Vibration    11          0.855              1.250              0.658

 Optimization completed.
    -- Stationary point found.
 Normal termination of Gaussian 16 at Sat Sep 28 02:42:09 2019.
