 Gaussian 16, Revision A.03,
 Gaussian 16:  EM64L-G16RevA.03 25-Dec-2016

 ----------------------------------------------------------------------
 #p m062x/cc-pVTZ opt=(calcfc,maxcycles=900,Tight) freq IOP(7/33=1,2/16
 =3) scf=(maxcycle=900)
 ----------------------------------------------------------------------

 ------------------------------
 Gaussian input prepared by ASE
 ------------------------------
 Symbolic Z-matrix:
 Charge =  0 Multiplicity = 1

 SCF Done:  E(RM062X) =  -276.312091709     A.U. after   11 cycles
 SCF Done:  E(RM062X) =  -276.325532356     A.U. after   10 cycles
 SCF Done:  E(RM062X) =  -276.330543844     A.U. after   11 cycles
 SCF Done:  E(RM062X) =  -276.330036908     A.U. after   10 cycles
 SCF Done:  E(RM062X) =  -276.333276742     A.U. after   10 cycles
 SCF Done:  E(RM062X) =  -276.334531676     A.U. after   11 cycles
 SCF Done:  E(RM062X) =  -276.334392637     A.U. after   10 cycles
 SCF Done:  E(RM062X) =  -276.335884126     A.U. after    9 cycles
 SCF Done:  E(RM062X) =  -276.336091545     A.U. after    9 cycles
 SCF Done:  E(RM062X) =  -276.336304131     A.U. after    9 cycles
 SCF Done:  E(RM062X) =  -276.336370083     A.U. after    8 cycles
 SCF Done:  E(RM062X) =  -276.336396558     A.U. after    8 cycles
 SCF Done:  E(RM062X) =  -276.336402382     A.U. after    8 cycles
 SCF Done:  E(RM062X) =  -276.336405310     A.U. after    6 cycles
 SCF Done:  E(RM062X) =  -276.336405884     A.U. after    6 cycles
 SCF Done:  E(RM062X) =  -276.336405954     A.U. after    5 cycles
 SCF Done:  E(RM062X) =  -276.336405957     A.U. after    4 cycles
 SCF Done:  E(RM062X) =  -276.336405959     A.U. after    4 cycles
 SCF Done:  E(RM062X) =  -276.336405959     A.U. after    2 cycles
 Optimization completed.
    -- Stationary point found.
 Normal termination of Gaussian 16 at Fri Sep 27 12:43:38 2019.

 ----------------------------------------------------------------------
 #P Geom=AllCheck Guess=TCheck SCRF=Check Test GenChk RM062X/CC-pVTZ Fr
 eq
 ----------------------------------------------------------------------

 Structure from the checkpoint file:  "/scratch/harms.n/gauss_scrdir/Gau-42467.chk"
 ------------------------------
 Gaussian input prepared by ASE
 ------------------------------
 Charge =  0 Multiplicity = 1

                         Standard orientation:
 ---------------------------------------------------------------------
 Center     Atomic      Atomic             Coordinates (Angstroms)
 Number     Number       Type             X           Y           Z
 ---------------------------------------------------------------------
      1          6           0        0.713327   -0.429873    0.465081
      2          6           0        0.162927    0.968106    0.199207
      3          6           0       -1.354832    1.092408    0.330918
      4          6           0        2.238586   -0.480745    0.530752
      5          6           0       -2.152606    0.197885   -0.629328
      6          6           0        2.915687   -0.060226   -0.769431
      7          6           0       -2.563353   -1.144406   -0.029432
      8          1           0        2.549169   -1.495777    0.785826
      9          1           0        2.583082    0.161612    1.345693
     10          1           0        0.370742   -1.114192   -0.316831
     11          1           0        0.300142   -0.801764    1.407113
     12          1           0        0.449567    1.286911   -0.806517
     13          1           0        0.639092    1.669481    0.891407
     14          1           0       -1.622598    2.136520    0.160129
     15          1           0       -1.649501    0.865805    1.360413
     16          1           0       -3.056384    0.721563   -0.944850
     17          1           0       -1.566092    0.034276   -1.538094
     18          1           0        2.540270   -0.650023   -1.608058
     19          1           0        2.733045    0.990179   -0.994660
     20          1           0        3.994542   -0.202774   -0.716731
     21          1           0       -3.206524   -0.990584    0.838337
     22          1           0       -1.701358   -1.722553    0.300381
     23          1           0       -3.115606   -1.747574   -0.750159
 ---------------------------------------------------------------------

 SCF Done:  E(RM062X) =  -276.336405959     A.U. after    1 cycles

 The electronic state is 1-A.
 Alpha  occ. eigenvalues --  -10.52659 -10.52638 -10.52484 -10.52461 -10.52430
 Alpha  occ. eigenvalues --  -10.51925 -10.51820  -0.91237  -0.87530  -0.82143
 Alpha  occ. eigenvalues --   -0.76728  -0.70952  -0.66283  -0.63703  -0.54226
 Alpha  occ. eigenvalues --   -0.52854  -0.51157  -0.49817  -0.48059  -0.46296
 Alpha  occ. eigenvalues --   -0.44132  -0.43528  -0.41894  -0.40107  -0.39458
 Alpha  occ. eigenvalues --   -0.39048  -0.37250  -0.36385  -0.35871
 Alpha virt. eigenvalues --    0.06902   0.08311   0.08727   0.08897   0.11594
 Alpha virt. eigenvalues --    0.12401   0.12878   0.13700   0.13832   0.15450
 Alpha virt. eigenvalues --    0.15681   0.16170   0.17233   0.18059   0.19128

 Mulliken charges:
               1
     1  C   -0.290641
     2  C   -0.270320
     3  C   -0.264888
     4  C   -0.253038
     5  C   -0.258436
     6  C   -0.368107
     7  C   -0.362028
     8  H    0.126174
     9  H    0.125525
    10  H    0.146121
    11  H    0.146957
    12  H    0.143927
    13  H    0.139143
    14  H    0.132484
    15  H    0.132014
    16  H    0.128329
    17  H    0.133356
    18  H    0.115960
    19  H    0.120077
    20  H    0.118693
    21  H    0.113441
    22  H    0.129755
    23  H    0.115502
 Sum of Mulliken charges =  -0.00000

 Dipole moment (field-independent basis, Debye):
    X=              0.0145    Y=              0.0525    Z=              0.0170  Tot=              0.0571
 Quadrupole moment (field-independent basis, Debye-Ang):
   XX=            -48.9932   YY=            -48.8664   ZZ=            -48.8017
   XY=             -0.4396   XZ=              0.3404   YZ=              0.2165

  Exact polarizability:  96.872   0.736  80.612  -0.268  -0.299  77.041
 Approx polarizability:  98.197   0.416  96.767  -0.049   0.200  97.260

                      1                      2                      3
                      A                      A                      A
 Frequencies --     58.8978                88.6563               128.1926
 Red. masses --      2.4384                 1.7239                 2.5465
 Frc consts  --      0.0050                 0.0080                 0.0247
 IR Inten    --      0.0010                 0.0096                 0.0106

                      4                      5                      6
                      A                      A                      A
 Frequencies --    148.6980               220.7150               223.1274
 Red. masses --      1.9419                 1.5984                 1.1743
 Frc consts  --      0.0253                 0.0459                 0.0344
 IR Inten    --      0.0198                 0.0741                 0.0346

                      7                      8                      9
                      A                      A                      A
 Frequencies --    264.5346               304.3109               376.3602
 Red. masses --      1.7279                 1.6902                 1.9971
 Frc consts  --      0.0712                 0.0922                 0.1667
 IR Inten    --      0.1067                 0.0400                 0.1975

                     10                     11                     12
                      A                      A                      A
 Frequencies --    411.5682               509.4257               743.3873
 Red. masses --      2.0157                 2.0214                 1.2534
 Frc consts  --      0.2012                 0.3091                 0.4081
 IR Inten    --      0.0654                 0.1091                 1.1429

                     13                     14                     15
                      A                      A                      A
 Frequencies --    773.8159               790.8796               825.9736
 Red. masses --      1.2097                 1.3552                 1.6513
 Frc consts  --      0.4268                 0.4994                 0.6638
 IR Inten    --      6.7962                 0.5496                 1.2431

                     16                     17                     18
                      A                      A                      A
 Frequencies --    867.1495               914.9831               954.9039
 Red. masses --      1.8219                 1.7365                 1.6421
 Frc consts  --      0.8072                 0.8565                 0.8822
 IR Inten    --      0.5700                 1.0211                 0.9944

                     19                     20                     21
                      A                      A                      A
 Frequencies --    973.0207              1025.9743              1051.1427
 Red. masses --      1.5632                 1.9065                 1.2709
 Frc consts  --      0.8720                 1.1824                 0.8273
 IR Inten    --      1.8794                 1.5127                 0.3275

                     22                     23                     24
                      A                      A                      A
 Frequencies --   1074.2456              1095.2060              1122.5025
 Red. masses --      1.4249                 2.2478                 2.0249
 Frc consts  --      0.9688                 1.5886                 1.5032
 IR Inten    --      0.5246                 0.2620                 0.1178

                     25                     26                     27
                      A                      A                      A
 Frequencies --   1152.6589              1183.8620              1233.3928
 Red. masses --      2.0193                 2.0576                 1.3871
 Frc consts  --      1.5807                 1.6990                 1.2433
 IR Inten    --      1.3402                 0.3170                 0.1768

                     28                     29                     30
                      A                      A                      A
 Frequencies --   1263.7056              1297.3231              1310.8711
 Red. masses --      1.3428                 1.2151                 1.2087
 Frc consts  --      1.2634                 1.2049                 1.2238
 IR Inten    --      0.4768                 0.0556                 1.1381

                     31                     32                     33
                      A                      A                      A
 Frequencies --   1330.4680              1347.8689              1369.7358
 Red. masses --      1.1364                 1.2236                 1.3259
 Frc consts  --      1.1852                 1.3098                 1.4657
 IR Inten    --      0.7277                 0.2299                 3.1099

                     34                     35                     36
                      A                      A                      A
 Frequencies --   1378.1277              1388.3726              1409.1712
 Red. masses --      1.4057                 1.5435                 1.4789
 Frc consts  --      1.5730                 1.7530                 1.7303
 IR Inten    --      3.1893                 0.1753                 1.6931

                     37                     38                     39
                      A                      A                      A
 Frequencies --   1414.9365              1417.5414              1483.2989
 Red. masses --      1.2641                 1.3482                 1.0777
 Frc consts  --      1.4911                 1.5962                 1.3970
 IR Inten    --      5.8709                 5.4189                 1.2172

                     40                     41                     42
                      A                      A                      A
 Frequencies --   1492.2551              1494.4932              1498.4811
 Red. masses --      1.0708                 1.0619                 1.0675
 Frc consts  --      1.4048                 1.3975                 1.4122
 IR Inten    --      0.9482                 1.6459                 3.5114

                     43                     44                     45
                      A                      A                      A
 Frequencies --   1502.7792              1504.8340              1509.4819
 Red. masses --      1.0810                 1.0522                 1.0652
 Frc consts  --      1.4383                 1.4039                 1.4301
 IR Inten    --      4.9852                 7.8192                 3.6630

                     46                     47                     48
                      A                      A                      A
 Frequencies --   1512.7724              1513.9132              3035.0801
 Red. masses --      1.0722                 1.0612                 1.0600
 Frc consts  --      1.4457                 1.4331                 5.7529
 IR Inten    --      0.8448                11.6607                 0.1088

                     49                     50                     51
                      A                      A                      A
 Frequencies --   3040.0749              3044.4492              3048.7689
 Red. masses --      1.0674                 1.0615                 1.0649
 Frc consts  --      5.8122                 5.7968                 5.8319
 IR Inten    --     13.3650                48.3891                 6.9640

                     52                     53                     54
                      A                      A                      A
 Frequencies --   3049.3855              3058.9984              3063.2842
 Red. masses --      1.0629                 1.0386                 1.0380
 Frc consts  --      5.8232                 5.7262                 5.7388
 IR Inten    --     37.8767                21.6485                25.9345

                     55                     56                     57
                      A                      A                      A
 Frequencies --   3069.6063              3082.7547              3087.0643
 Red. masses --      1.0961                 1.1002                 1.1005
 Frc consts  --      6.0850                 6.1604                 6.1793
 IR Inten    --      3.3094                15.3584                26.2229

                     58                     59                     60
                      A                      A                      A
 Frequencies --   3093.4074              3097.4559              3126.4877
 Red. masses --      1.0974                 1.1016                 1.1008
 Frc consts  --      6.1871                 6.2268                 6.3400
 IR Inten    --     54.5201                53.8950                15.7206

                     61                     62                     63
                      A                      A                      A
 Frequencies --   3126.6609              3138.1296              3145.8586
 Red. masses --      1.1010                 1.1018                 1.1002
 Frc consts  --      6.3418                 6.3928                 6.4149
 IR Inten    --     52.1227                33.4356                30.8626

 - Thermochemistry -
 -------------------
 Temperature   298.150 Kelvin.  Pressure   1.00000 Atm.
 Atom     1 has atomic number  6 and mass  12.00000

 Molecular mass:   100.12520 amu.
 Principal axes and moments of inertia in atomic units:
                           1         2         3
     Eigenvalues --   378.901361592.460271712.23360
           X            0.99997   0.00648  -0.00470
           Y           -0.00653   0.99993  -0.00988
           Z            0.00463   0.00991   0.99994
 This molecule is an asymmetric top.
 Rotational symmetry number  1.
 Rotational temperatures (Kelvin)      0.22859     0.05439     0.05059
 Rotational constants (GHZ):           4.76309     1.13330     1.05403
 Zero-point vibrational energy     575795.5 (Joules/Mol)
                                  137.61842 (Kcal/Mol)
 Warning -- explicit consideration of  11 degrees of freedom as
           vibrations may cause significant error
 Vibrational temperatures:     84.74   127.56   184.44   213.94   317.56
          (Kelvin)            321.03   380.61   437.84   541.50   592.15
                              732.95  1069.57  1113.35  1137.90  1188.39
                             1247.63  1316.46  1373.89  1399.96  1476.15
                             1512.36  1545.60  1575.76  1615.03  1658.42
                             1703.31  1774.58  1818.19  1866.56  1886.05
                             1914.25  1939.28  1970.74  1982.82  1997.56
                             2027.48  2035.78  2039.53  2134.14  2147.02
                             2150.24  2155.98  2162.16  2165.12  2171.81
                             2176.54  2178.18  4366.80  4373.99  4380.28
                             4386.50  4387.39  4401.22  4407.38  4416.48
                             4435.40  4441.60  4450.72  4456.55  4498.32
                             4498.57  4515.07  4526.19

 Zero-point correction=                           0.219309 (Hartree/Particle)
 Thermal correction to Energy=                    0.228694
 Thermal correction to Enthalpy=                  0.229638
 Thermal correction to Gibbs Free Energy=         0.185099
 Sum of electronic and zero-point Energies=           -276.117097
 Sum of electronic and thermal Energies=              -276.107712
 Sum of electronic and thermal Enthalpies=            -276.106768
 Sum of electronic and thermal Free Energies=         -276.151307

                     E (Thermal)             CV                S
                      KCal/Mol        Cal/Mol-Kelvin    Cal/Mol-Kelvin
 Total                  143.507             33.714             93.739
 Electronic               0.000              0.000              0.000
 Translational            0.889              2.981             39.722
 Rotational               0.889              2.981             28.426
 Vibrational            141.730             27.752             25.591
 Vibration     1          0.596              1.974              4.494
 Vibration     2          0.601              1.957              3.689
 Vibration     3          0.611              1.925              2.973
 Vibration     4          0.618              1.904              2.689
 Vibration     5          0.647              1.810              1.953
 Vibration     6          0.649              1.806              1.934
 Vibration     7          0.671              1.738              1.632
 Vibration     8          0.695              1.666              1.393
 Vibration     9          0.747              1.520              1.054
 Vibration    10          0.776              1.445              0.921
 Vibration    11          0.865              1.229              0.635

 Optimization completed.
    -- Stationary point found.
 Normal termination of Gaussian 16 at Fri Sep 27 16:28:10 2019.
