 Gaussian 16, Revision A.03,
 Gaussian 16:  EM64L-G16RevA.03 25-Dec-2016

 ----------------------------------------------------------------------
 #p m062x/cc-pVTZ opt=(calcfc,maxcycles=900,Tight) freq IOP(7/33=1,2/16
 =3) scf=(maxcycle=900)
 ----------------------------------------------------------------------

 ------------------------------
 Gaussian input prepared by ASE
 ------------------------------
 Symbolic Z-matrix:
 Charge =  0 Multiplicity = 1

 SCF Done:  E(RM062X) =  -276.295953458     A.U. after   11 cycles
 SCF Done:  E(RM062X) =  -276.316720397     A.U. after   10 cycles
 SCF Done:  E(RM062X) =  -276.322071521     A.U. after   10 cycles
 SCF Done:  E(RM062X) =  -276.327279474     A.U. after   10 cycles
 SCF Done:  E(RM062X) =  -276.329671678     A.U. after   10 cycles
 SCF Done:  E(RM062X) =  -276.288893374     A.U. after   11 cycles
 SCF Done:  E(RM062X) =  -276.332863302     A.U. after   10 cycles
 SCF Done:  E(RM062X) =  -276.335340621     A.U. after   10 cycles
 SCF Done:  E(RM062X) =  -276.336144060     A.U. after    9 cycles
 SCF Done:  E(RM062X) =  -276.336266880     A.U. after    8 cycles
 SCF Done:  E(RM062X) =  -276.336608981     A.U. after    5 cycles
 SCF Done:  E(RM062X) =  -276.336609085     A.U. after    5 cycles
 SCF Done:  E(RM062X) =  -276.336609105     A.U. after    5 cycles
 SCF Done:  E(RM062X) =  -276.336609117     A.U. after    5 cycles
 SCF Done:  E(RM062X) =  -276.336609120     A.U. after    4 cycles
 SCF Done:  E(RM062X) =  -276.336609121     A.U. after    3 cycles
 SCF Done:  E(RM062X) =  -276.336609120     A.U. after    3 cycles
 SCF Done:  E(RM062X) =  -276.336609120     A.U. after    3 cycles
 SCF Done:  E(RM062X) =  -276.336609120     A.U. after    3 cycles
 Optimization completed.
    -- Stationary point found.
 Normal termination of Gaussian 16 at Fri Sep 27 19:07:39 2019.

 ----------------------------------------------------------------------
 #P Geom=AllCheck Guess=TCheck SCRF=Check Test GenChk RM062X/CC-pVTZ Fr
 eq
 ----------------------------------------------------------------------

 Structure from the checkpoint file:  "/scratch/harms.n/gauss_scrdir/Gau-27566.chk"
 ------------------------------
 Gaussian input prepared by ASE
 ------------------------------
 Charge =  0 Multiplicity = 1

                         Standard orientation:
 ---------------------------------------------------------------------
 Center     Atomic      Atomic             Coordinates (Angstroms)
 Number     Number       Type             X           Y           Z
 ---------------------------------------------------------------------
      1          6           0        0.913986   -0.917459   -0.683919
      2          6           0       -0.153758   -1.314163    0.337319
      3          6           0       -0.821289   -0.160820    1.086658
      4          6           0        2.147600   -0.218195   -0.096315
      5          6           0       -1.507535    0.868125    0.188361
      6          6           0        2.053582    1.303893   -0.021184
      7          6           0       -2.571765    0.259456   -0.718531
      8          1           0        3.017299   -0.470624   -0.705527
      9          1           0        2.348547   -0.624924    0.899138
     10          1           0        0.474751   -0.285176   -1.461820
     11          1           0        1.235686   -1.830470   -1.188374
     12          1           0        0.303215   -1.985861    1.068919
     13          1           0       -0.922292   -1.901949   -0.170094
     14          1           0       -0.085390    0.339403    1.720170
     15          1           0       -1.567782   -0.580480    1.766872
     16          1           0       -1.964241    1.632555    0.820127
     17          1           0       -0.764799    1.384594   -0.423419
     18          1           0        1.264548    1.637907    0.650335
     19          1           0        2.991049    1.734201    0.331371
     20          1           0        1.846775    1.722701   -1.007721
     21          1           0       -3.293975   -0.317409   -0.137484
     22          1           0       -2.131044   -0.411098   -1.456886
     23          1           0       -3.117274    1.031606   -1.259949
 ---------------------------------------------------------------------

 SCF Done:  E(RM062X) =  -276.336609120     A.U. after    1 cycles

 The electronic state is 1-A.
 Alpha  occ. eigenvalues --  -10.52712 -10.52551 -10.52476 -10.52434 -10.52392
 Alpha  occ. eigenvalues --  -10.51939 -10.51934  -0.91301  -0.87213  -0.82171
 Alpha  occ. eigenvalues --   -0.77004  -0.71156  -0.67010  -0.62103  -0.54764
 Alpha  occ. eigenvalues --   -0.53946  -0.50545  -0.49655  -0.47079  -0.46321
 Alpha  occ. eigenvalues --   -0.45368  -0.43070  -0.42372  -0.40215  -0.39486
 Alpha  occ. eigenvalues --   -0.38835  -0.36704  -0.36280  -0.36103
 Alpha virt. eigenvalues --    0.06533   0.08413   0.08807   0.09035   0.11939
 Alpha virt. eigenvalues --    0.12319   0.12952   0.13452   0.14391   0.15002
 Alpha virt. eigenvalues --    0.16479   0.16974   0.17431   0.18152   0.19927

 Mulliken charges:
               1
     1  C   -0.278502
     2  C   -0.309492
     3  C   -0.329787
     4  C   -0.242522
     5  C   -0.266874
     6  C   -0.395144
     7  C   -0.371540
     8  H    0.129154
     9  H    0.134223
    10  H    0.143391
    11  H    0.140169
    12  H    0.150565
    13  H    0.156585
    14  H    0.164134
    15  H    0.154263
    16  H    0.138073
    17  H    0.146802
    18  H    0.129757
    19  H    0.123069
    20  H    0.123415
    21  H    0.121039
    22  H    0.119481
    23  H    0.119740
 Sum of Mulliken charges =  -0.00000

 Dipole moment (field-independent basis, Debye):
    X=              0.0599    Y=             -0.0425    Z=              0.0183  Tot=              0.0756
 Quadrupole moment (field-independent basis, Debye-Ang):
   XX=            -48.6638   YY=            -49.0996   ZZ=            -48.7241
   XY=             -0.2903   XZ=             -0.3161   YZ=             -0.0587

  Exact polarizability:  92.522   0.245  82.337   0.713   0.116  77.164
 Approx polarizability:  98.322   0.088  97.208   0.307  -0.350  97.020

                      1                      2                      3
                      A                      A                      A
 Frequencies --     70.8265               103.1964               117.8448
 Red. masses --      2.1011                 2.6358                 1.8567
 Frc consts  --      0.0062                 0.0165                 0.0152
 IR Inten    --      0.0020                 0.0571                 0.0111

                      4                      5                      6
                      A                      A                      A
 Frequencies --    200.2190               214.5829               254.9406
 Red. masses --      2.0312                 1.7250                 1.2389
 Frc consts  --      0.0480                 0.0468                 0.0474
 IR Inten    --      0.0136                 0.0217                 0.1701

                      7                      8                      9
                      A                      A                      A
 Frequencies --    291.1123               360.0131               370.2339
 Red. masses --      1.4320                 1.9605                 1.8444
 Frc consts  --      0.0715                 0.1497                 0.1490
 IR Inten    --      0.0220                 0.1612                 0.2285

                     10                     11                     12
                      A                      A                      A
 Frequencies --    442.7943               505.0881               728.3045
 Red. masses --      1.7085                 2.0413                 1.2444
 Frc consts  --      0.1974                 0.3068                 0.3889
 IR Inten    --      0.3895                 0.0884                 5.8196

                     13                     14                     15
                      A                      A                      A
 Frequencies --    747.5746               795.3371               831.4142
 Red. masses --      1.4802                 1.4765                 1.6748
 Frc consts  --      0.4874                 0.5503                 0.6821
 IR Inten    --      2.8668                 2.3359                 0.4942

                     16                     17                     18
                      A                      A                      A
 Frequencies --    866.5342               900.1940               956.5427
 Red. masses --      1.8483                 1.6194                 1.6931
 Frc consts  --      0.8177                 0.7732                 0.9127
 IR Inten    --      1.1083                 2.7365                 0.9853

                     19                     20                     21
                      A                      A                      A
 Frequencies --    961.6291              1018.0992              1055.7771
 Red. masses --      1.4161                 1.7040                 1.3736
 Frc consts  --      0.7715                 1.0406                 0.9021
 IR Inten    --      0.6225                 1.7569                 0.5900

                     22                     23                     24
                      A                      A                      A
 Frequencies --   1064.2047              1090.6175              1129.9154
 Red. masses --      1.6152                 1.7096                 1.8807
 Frc consts  --      1.0778                 1.1981                 1.4147
 IR Inten    --      0.4533                 0.0770                 0.3422

                     25                     26                     27
                      A                      A                      A
 Frequencies --   1152.0217              1169.3908              1233.3154
 Red. masses --      1.9361                 2.1077                 1.3723
 Frc consts  --      1.5139                 1.6982                 1.2299
 IR Inten    --      1.0565                 0.5349                 0.2605

                     28                     29                     30
                      A                      A                      A
 Frequencies --   1247.8924              1295.7438              1310.9467
 Red. masses --      1.3477                 1.2170                 1.1658
 Frc consts  --      1.2365                 1.2038                 1.1804
 IR Inten    --      0.6188                 1.0978                 0.2558

                     31                     32                     33
                      A                      A                      A
 Frequencies --   1333.2717              1365.9118              1374.0773
 Red. masses --      1.1186                 1.3041                 1.4011
 Frc consts  --      1.1715                 1.4336                 1.5586
 IR Inten    --      1.5520                 3.2655                 0.8153

                     34                     35                     36
                      A                      A                      A
 Frequencies --   1383.0238              1399.6496              1403.6732
 Red. masses --      1.5234                 1.4873                 1.4202
 Frc consts  --      1.7168                 1.7166                 1.6487
 IR Inten    --      0.1739                 0.4718                 1.1136

                     37                     38                     39
                      A                      A                      A
 Frequencies --   1415.8282              1417.5387              1484.2856
 Red. masses --      1.2645                 1.3255                 1.0708
 Frc consts  --      1.4934                 1.5693                 1.3899
 IR Inten    --      6.7735                 4.0340                 1.3615

                     40                     41                     42
                      A                      A                      A
 Frequencies --   1487.9019              1491.6950              1500.7142
 Red. masses --      1.0641                 1.0795                 1.0748
 Frc consts  --      1.3880                 1.4153                 1.4261
 IR Inten    --      1.4624                 1.7954                 7.8108

                     43                     44                     45
                      A                      A                      A
 Frequencies --   1501.4568              1509.2306              1512.1337
 Red. masses --      1.0482                 1.0613                 1.0585
 Frc consts  --      1.3923                 1.4242                 1.4260
 IR Inten    --      1.7468                 2.7393                18.6697

                     46                     47                     48
                      A                      A                      A
 Frequencies --   1513.1055              1518.9291              3043.4445
 Red. masses --      1.0712                 1.0733                 1.0674
 Frc consts  --      1.4450                 1.4590                 5.8254
 IR Inten    --      9.6406                 3.4851                16.2529

                     49                     50                     51
                      A                      A                      A
 Frequencies --   3046.1726              3048.7463              3053.1165
 Red. masses --      1.0641                 1.0605                 1.0568
 Frc consts  --      5.8175                 5.8077                 5.8042
 IR Inten    --      6.1903                26.7727                27.8585

                     52                     53                     54
                      A                      A                      A
 Frequencies --   3057.1304              3061.9970              3063.1464
 Red. masses --      1.0444                 1.0406                 1.0608
 Frc consts  --      5.7509                 5.7485                 5.8642
 IR Inten    --     23.6008                14.9223                12.9169

                     55                     56                     57
                      A                      A                      A
 Frequencies --   3078.2880              3085.3562              3090.9361
 Red. masses --      1.0992                 1.0998                 1.0947
 Frc consts  --      6.1370                 6.1685                 6.1620
 IR Inten    --      1.8379                36.1932                47.9238

                     58                     59                     60
                      A                      A                      A
 Frequencies --   3093.8397              3098.0308              3124.1532
 Red. masses --      1.1000                 1.1008                 1.1009
 Frc consts  --      6.2035                 6.2251                 6.3311
 IR Inten    --     31.5270                61.4585                31.6074

                     61                     62                     63
                      A                      A                      A
 Frequencies --   3125.1033              3132.7006              3149.3471
 Red. masses --      1.1016                 1.1015                 1.0990
 Frc consts  --      6.3385                 6.3692                 6.4222
 IR Inten    --     46.5987                30.5415                25.6769

 - Thermochemistry -
 -------------------
 Temperature   298.150 Kelvin.  Pressure   1.00000 Atm.
 Atom     1 has atomic number  6 and mass  12.00000

 Molecular mass:   100.12520 amu.
 Principal axes and moments of inertia in atomic units:
                           1         2         3
     Eigenvalues --   482.196881217.916861369.76979
           X            0.99995   0.00780   0.00615
           Y           -0.00782   0.99997   0.00291
           Z           -0.00613  -0.00296   0.99998
 This molecule is an asymmetric top.
 Rotational symmetry number  1.
 Warning -- assumption of classical behavior for rotation
           may cause significant error
 Rotational temperatures (Kelvin)      0.17962     0.07112     0.06323
 Rotational constants (GHZ):           3.74275     1.48183     1.31755
 Zero-point vibrational energy     576900.6 (Joules/Mol)
                                  137.88254 (Kcal/Mol)
 Warning -- explicit consideration of  11 degrees of freedom as
           vibrations may cause significant error
 Vibrational temperatures:    101.90   148.48   169.55   288.07   308.74
          (Kelvin)            366.80   418.85   517.98   532.68   637.08
                              726.71  1047.87  1075.59  1144.31  1196.22
                             1246.75  1295.18  1376.25  1383.57  1464.82
                             1519.03  1531.15  1569.16  1625.70  1657.50
                             1682.49  1774.47  1795.44  1864.29  1886.16
                             1918.28  1965.24  1976.99  1989.86  2013.78
                             2019.57  2037.06  2039.52  2135.56  2140.76
                             2146.22  2159.19  2160.26  2171.45  2175.62
                             2177.02  2185.40  4378.84  4382.76  4386.47
                             4392.75  4398.53  4405.53  4407.18  4428.97
                             4439.14  4447.17  4451.35  4457.38  4494.96
                             4496.33  4507.26  4531.21

 Zero-point correction=                           0.219730 (Hartree/Particle)
 Thermal correction to Energy=                    0.228859
 Thermal correction to Enthalpy=                  0.229803
 Thermal correction to Gibbs Free Energy=         0.186188
 Sum of electronic and zero-point Energies=           -276.116879
 Sum of electronic and thermal Energies=              -276.107750
 Sum of electronic and thermal Enthalpies=            -276.106806
 Sum of electronic and thermal Free Energies=         -276.150421

                     E (Thermal)             CV                S
                      KCal/Mol        Cal/Mol-Kelvin    Cal/Mol-Kelvin
 Total                  143.611             33.500             91.797
 Electronic               0.000              0.000              0.000
 Translational            0.889              2.981             39.722
 Rotational               0.889              2.981             28.177
 Vibrational            141.834             27.538             23.898
 Vibration     1          0.598              1.968              4.130
 Vibration     2          0.605              1.947              3.393
 Vibration     3          0.608              1.935              3.135
 Vibration     4          0.638              1.840              2.131
 Vibration     5          0.645              1.819              2.004
 Vibration     6          0.665              1.754              1.696
 Vibration     7          0.687              1.690              1.467
 Vibration     8          0.735              1.555              1.122
 Vibration     9          0.742              1.533              1.079
 Vibration    10          0.802              1.377              0.818
 Vibration    11          0.860              1.239              0.646

                           ! Non-Optimized Parameters !
 Normal termination of Gaussian 16 at Fri Sep 27 22:36:38 2019.
