 Gaussian 16, Revision A.03,
 Gaussian 16:  EM64L-G16RevA.03 25-Dec-2016

 ----------------------------------------------------------------------
 #p m062x/cc-pVTZ opt=(calcfc,maxcycles=900,Tight) freq IOP(7/33=1,2/16
 =3) scf=(maxcycle=900)
 ----------------------------------------------------------------------

 ------------------------------
 Gaussian input prepared by ASE
 ------------------------------
 Symbolic Z-matrix:
 Charge =  0 Multiplicity = 1

 SCF Done:  E(RM062X) =  -276.305727905     A.U. after   11 cycles
 SCF Done:  E(RM062X) =  -276.324780951     A.U. after   11 cycles
 SCF Done:  E(RM062X) =  -276.324293694     A.U. after   10 cycles
 SCF Done:  E(RM062X) =  -276.329033507     A.U. after   10 cycles
 SCF Done:  E(RM062X) =  -276.331632515     A.U. after   10 cycles
 SCF Done:  E(RM062X) =  -276.333604693     A.U. after   10 cycles
 SCF Done:  E(RM062X) =  -276.334233467     A.U. after    9 cycles
 SCF Done:  E(RM062X) =  -276.334485844     A.U. after    9 cycles
 SCF Done:  E(RM062X) =  -276.334670116     A.U. after    9 cycles
 SCF Done:  E(RM062X) =  -276.335004899     A.U. after   11 cycles
 SCF Done:  E(RM062X) =  -276.339561124     A.U. after    8 cycles
 SCF Done:  E(RM062X) =  -276.339565372     A.U. after    7 cycles
 SCF Done:  E(RM062X) =  -276.339568025     A.U. after    6 cycles
 SCF Done:  E(RM062X) =  -276.339570599     A.U. after    6 cycles
 SCF Done:  E(RM062X) =  -276.339573141     A.U. after    7 cycles
 SCF Done:  E(RM062X) =  -276.339574117     A.U. after    6 cycles
 SCF Done:  E(RM062X) =  -276.339574249     A.U. after    5 cycles
 SCF Done:  E(RM062X) =  -276.339574254     A.U. after    4 cycles
 SCF Done:  E(RM062X) =  -276.339574255     A.U. after    3 cycles
 Optimization completed.
    -- Stationary point found.
 Normal termination of Gaussian 16 at Fri Sep 27 16:10:36 2019.

 ----------------------------------------------------------------------
 #P Geom=AllCheck Guess=TCheck SCRF=Check Test GenChk RM062X/CC-pVTZ Fr
 eq
 ----------------------------------------------------------------------

 Structure from the checkpoint file:  "/scratch/harms.n/gauss_scrdir/Gau-18287.chk"
 ------------------------------
 Gaussian input prepared by ASE
 ------------------------------
 Charge =  0 Multiplicity = 1

                         Standard orientation:
 ---------------------------------------------------------------------
 Center     Atomic      Atomic             Coordinates (Angstroms)
 Number     Number       Type             X           Y           Z
 ---------------------------------------------------------------------
      1          6           0        1.441081    1.023030   -0.461393
      2          6           0       -0.018739    0.624782   -0.676035
      3          6           0       -0.819219    0.531885    0.619606
      4          6           0        2.219276    0.091679    0.468945
      5          6           0       -2.317775    0.336401    0.400982
      6          6           0        2.203579   -1.363578    0.014558
      7          6           0       -2.655273   -0.960476   -0.327176
      8          1           0        1.817297    0.162081    1.482093
      9          1           0        3.251611    0.441395    0.528237
     10          1           0        1.476716    2.038609   -0.058210
     11          1           0        1.946222    1.055199   -1.430538
     12          1           0       -0.061117   -0.328744   -1.206836
     13          1           0       -0.493765    1.358693   -1.333543
     14          1           0       -0.653468    1.442331    1.203201
     15          1           0       -0.441622   -0.295852    1.227771
     16          1           0       -2.822913    0.347553    1.368717
     17          1           0       -2.712376    1.185445   -0.163602
     18          1           0        2.551170   -1.451741   -1.016636
     19          1           0        2.848628   -1.980056    0.639672
     20          1           0        1.198790   -1.785883    0.060699
     21          1           0       -2.214700   -1.817057    0.187346
     22          1           0       -2.275844   -0.956346   -1.348692
     23          1           0       -3.732206   -1.117973   -0.376602
 ---------------------------------------------------------------------

 SCF Done:  E(RM062X) =  -276.339574255     A.U. after    1 cycles

 The electronic state is 1-A.
 Alpha  occ. eigenvalues --  -10.52656 -10.52567 -10.52456 -10.52450 -10.52333
 Alpha  occ. eigenvalues --  -10.51945 -10.51931  -0.91362  -0.87609  -0.81989
 Alpha  occ. eigenvalues --   -0.76505  -0.71679  -0.66446  -0.62650  -0.54603
 Alpha  occ. eigenvalues --   -0.53337  -0.51060  -0.50258  -0.47044  -0.46454
 Alpha  occ. eigenvalues --   -0.44426  -0.43383  -0.42425  -0.39632  -0.39550
 Alpha  occ. eigenvalues --   -0.38936  -0.37011  -0.36654  -0.36130
 Alpha virt. eigenvalues --    0.06418   0.08265   0.08723   0.08978   0.11959
 Alpha virt. eigenvalues --    0.12362   0.12620   0.13676   0.14092   0.15312
 Alpha virt. eigenvalues --    0.16244   0.16417   0.17506   0.17959   0.19368

 Mulliken charges:
               1
     1  C   -0.290279
     2  C   -0.298098
     3  C   -0.282894
     4  C   -0.255993
     5  C   -0.242196
     6  C   -0.370890
     7  C   -0.373113
     8  H    0.139360
     9  H    0.133885
    10  H    0.138121
    11  H    0.140944
    12  H    0.153897
    13  H    0.149269
    14  H    0.143913
    15  H    0.145993
    16  H    0.126101
    17  H    0.124894
    18  H    0.120802
    19  H    0.120626
    20  H    0.116312
    21  H    0.117065
    22  H    0.121769
    23  H    0.120512
 Sum of Mulliken charges =  -0.00000

 Dipole moment (field-independent basis, Debye):
    X=              0.0073    Y=              0.0991    Z=              0.0487  Tot=              0.1107
 Quadrupole moment (field-independent basis, Debye-Ang):
   XX=            -48.6697   YY=            -49.1149   ZZ=            -48.7111
   XY=             -0.1553   XZ=             -0.2040   YZ=             -0.2627

  Exact polarizability:  95.189   0.323  81.984   0.375   0.355  76.680
 Approx polarizability:  98.160  -0.177  97.272   0.196   0.000  96.858

                      1                      2                      3
                      A                      A                      A
 Frequencies --     46.2863                81.3806               138.5142
 Red. masses --      2.7230                 2.1565                 2.0186
 Frc consts  --      0.0034                 0.0084                 0.0228
 IR Inten    --      0.0007                 0.0017                 0.0195

                      4                      5                      6
                      A                      A                      A
 Frequencies --    168.6212               229.2583               252.8501
 Red. masses --      1.4459                 1.4424                 2.0577
 Frc consts  --      0.0242                 0.0447                 0.0775
 IR Inten    --      0.0354                 0.0338                 0.0166

                      7                      8                      9
                      A                      A                      A
 Frequencies --    290.7136               305.2764               356.8542
 Red. masses --      1.4380                 1.4677                 1.9612
 Frc consts  --      0.0716                 0.0806                 0.1472
 IR Inten    --      0.0767                 0.0175                 0.2792

                     10                     11                     12
                      A                      A                      A
 Frequencies --    442.1697               522.3949               724.9190
 Red. masses --      2.1840                 2.1858                 1.1717
 Frc consts  --      0.2516                 0.3514                 0.3628
 IR Inten    --      0.0919                 0.3119                 3.9166

                     13                     14                     15
                      A                      A                      A
 Frequencies --    767.9057               798.0132               845.9204
 Red. masses --      1.1874                 1.3525                 1.6782
 Frc consts  --      0.4125                 0.5075                 0.7076
 IR Inten    --      5.6811                 1.2637                 0.1843

                     16                     17                     18
                      A                      A                      A
 Frequencies --    853.4691               908.0449               949.7535
 Red. masses --      1.8729                 1.7397                 1.7543
 Frc consts  --      0.8038                 0.8451                 0.9323
 IR Inten    --      0.0320                 1.5833                 1.3250

                     19                     20                     21
                      A                      A                      A
 Frequencies --    967.4728              1012.0162              1046.7049
 Red. masses --      1.3572                 1.7841                 1.4074
 Frc consts  --      0.7485                 1.0766                 0.9085
 IR Inten    --      0.6155                 1.5625                 0.8023

                     22                     23                     24
                      A                      A                      A
 Frequencies --   1069.7968              1093.7048              1121.8875
 Red. masses --      1.2447                 2.4030                 1.9642
 Frc consts  --      0.8393                 1.6935                 1.4566
 IR Inten    --      0.3161                 0.4437                 0.0331

                     25                     26                     27
                      A                      A                      A
 Frequencies --   1163.5963              1169.8976              1232.2169
 Red. masses --      1.9917                 2.0531                 1.4731
 Frc consts  --      1.5888                 1.6556                 1.3178
 IR Inten    --      0.1529                 0.4114                 1.4446

                     28                     29                     30
                      A                      A                      A
 Frequencies --   1262.0370              1296.7438              1314.7159
 Red. masses --      1.3671                 1.2406                 1.2407
 Frc consts  --      1.2829                 1.2291                 1.2635
 IR Inten    --      0.4521                 0.2138                 0.6258

                     31                     32                     33
                      A                      A                      A
 Frequencies --   1327.2609              1343.6038              1377.5301
 Red. masses --      1.1442                 1.2114                 1.3603
 Frc consts  --      1.1876                 1.2885                 1.5208
 IR Inten    --      1.6047                 1.0335                 1.0081

                     34                     35                     36
                      A                      A                      A
 Frequencies --   1379.2132              1390.5797              1409.1715
 Red. masses --      1.3764                 1.5109                 1.4713
 Frc consts  --      1.5426                 1.7214                 1.7214
 IR Inten    --      3.6471                 1.1991                 0.4388

                     37                     38                     39
                      A                      A                      A
 Frequencies --   1415.8894              1418.0034              1480.7385
 Red. masses --      1.3533                 1.3174                 1.0692
 Frc consts  --      1.5984                 1.5607                 1.3813
 IR Inten    --      2.3073                10.7497                 0.7443

                     40                     41                     42
                      A                      A                      A
 Frequencies --   1492.7073              1494.2432              1497.7373
 Red. masses --      1.0787                 1.0679                 1.0562
 Frc consts  --      1.4162                 1.4048                 1.3960
 IR Inten    --      0.7807                 2.7245                 2.0546

                     43                     44                     45
                      A                      A                      A
 Frequencies --   1501.6524              1505.0057              1509.7097
 Red. masses --      1.0773                 1.0610                 1.0646
 Frc consts  --      1.4313                 1.4159                 1.4297
 IR Inten    --     11.2397                 3.2790                 9.0447

                     46                     47                     48
                      A                      A                      A
 Frequencies --   1513.3981              1519.3381              3036.5758
 Red. masses --      1.0606                 1.0743                 1.0602
 Frc consts  --      1.4312                 1.4611                 5.7596
 IR Inten    --      7.1876                 1.3162                 5.2614

                     49                     50                     51
                      A                      A                      A
 Frequencies --   3043.7057              3049.3999              3051.6549
 Red. masses --      1.0619                 1.0650                 1.0574
 Frc consts  --      5.7959                 5.8346                 5.8016
 IR Inten    --     28.4698                11.8410                41.1550

                     52                     53                     54
                      A                      A                      A
 Frequencies --   3056.0860              3057.9946              3061.4677
 Red. masses --      1.0455                 1.0391                 1.0621
 Frc consts  --      5.7531                 5.7248                 5.8651
 IR Inten    --     19.4025                18.6723                25.4120

                     55                     56                     57
                      A                      A                      A
 Frequencies --   3071.2468              3079.8044              3088.1199
 Red. masses --      1.0950                 1.0977                 1.1001
 Frc consts  --      6.0857                 6.1343                 6.1810
 IR Inten    --     13.6484                12.5421                17.2967

                     58                     59                     60
                      A                      A                      A
 Frequencies --   3094.8052              3100.9406              3123.6519
 Red. masses --      1.1021                 1.1017                 1.1021
 Frc consts  --      6.2190                 6.2418                 6.3356
 IR Inten    --     29.8607                69.1338                47.4261

                     61                     62                     63
                      A                      A                      A
 Frequencies --   3125.4923              3132.0642              3137.9147
 Red. masses --      1.0999                 1.1013                 1.1017
 Frc consts  --      6.3303                 6.3650                 6.3915
 IR Inten    --     32.8707                36.2002                32.2922

 - Thermochemistry -
 -------------------
 Temperature   298.150 Kelvin.  Pressure   1.00000 Atm.
 Atom     1 has atomic number  6 and mass  12.00000

 Molecular mass:   100.12520 amu.
 Principal axes and moments of inertia in atomic units:
                           1         2         3
     Eigenvalues --   414.804131467.014371634.16272
           X            1.00000   0.00006   0.00258
           Y           -0.00009   0.99993   0.01186
           Z           -0.00258  -0.01186   0.99993
 This molecule is an asymmetric top.
 Rotational symmetry number  1.
 Rotational temperatures (Kelvin)      0.20881     0.05904     0.05300
 Rotational constants (GHZ):           4.35083     1.23021     1.10438
 Zero-point vibrational energy     576120.6 (Joules/Mol)
                                  137.69613 (Kcal/Mol)
 Warning -- explicit consideration of  11 degrees of freedom as
           vibrations may cause significant error
 Vibrational temperatures:     66.60   117.09   199.29   242.61   329.85
          (Kelvin)            363.79   418.27   439.22   513.43   636.18
                              751.61  1043.00  1104.85  1148.16  1217.09
                             1227.95  1306.47  1366.48  1391.98  1456.07
                             1505.97  1539.20  1573.60  1614.15  1674.16
                             1683.22  1772.89  1815.79  1865.73  1891.58
                             1909.63  1933.15  1981.96  1984.38  2000.73
                             2027.48  2037.15  2040.19  2130.45  2147.67
                             2149.88  2154.91  2160.54  2165.37  2172.14
                             2177.44  2185.99  4368.96  4379.21  4387.41
                             4390.65  4397.03  4399.77  4404.77  4418.84
                             4431.15  4443.12  4452.73  4461.56  4494.24
                             4496.89  4506.34  4514.76

 Zero-point correction=                           0.219433 (Hartree/Particle)
 Thermal correction to Energy=                    0.228709
 Thermal correction to Enthalpy=                  0.229653
 Thermal correction to Gibbs Free Energy=         0.185238
 Sum of electronic and zero-point Energies=           -276.120142
 Sum of electronic and thermal Energies=              -276.110865
 Sum of electronic and thermal Enthalpies=            -276.109921
 Sum of electronic and thermal Free Energies=         -276.154337

                     E (Thermal)             CV                S
                      KCal/Mol        Cal/Mol-Kelvin    Cal/Mol-Kelvin
 Total                  143.517             33.593             93.480
 Electronic               0.000              0.000              0.000
 Translational            0.889              2.981             39.722
 Rotational               0.889              2.981             28.388
 Vibrational            141.740             27.632             25.370
 Vibration     1          0.595              1.979              4.970
 Vibration     2          0.600              1.962              3.857
 Vibration     3          0.614              1.915              2.824
 Vibration     4          0.625              1.881              2.451
 Vibration     5          0.652              1.796              1.885
 Vibration     6          0.664              1.758              1.711
 Vibration     7          0.687              1.691              1.470
 Vibration     8          0.696              1.664              1.388
 Vibration     9          0.732              1.561              1.136
 Vibration    10          0.802              1.378              0.820
 Vibration    11          0.877              1.200              0.604

                           ! Non-Optimized Parameters !
 Normal termination of Gaussian 16 at Fri Sep 27 19:57:43 2019.
