 Gaussian 16, Revision A.03,
 Gaussian 16:  EM64L-G16RevA.03 25-Dec-2016

 ----------------------------------------------------------------------
 #p m062x/cc-pVTZ opt=(calcfc,maxcycles=900,Tight) freq IOP(7/33=1,2/16
 =3) scf=(maxcycle=900)
 ----------------------------------------------------------------------

 ------------------------------
 Gaussian input prepared by ASE
 ------------------------------
 Symbolic Z-matrix:
 Charge =  0 Multiplicity = 1

 SCF Done:  E(RM062X) =  -276.297318632     A.U. after   11 cycles
 SCF Done:  E(RM062X) =  -276.316087384     A.U. after   11 cycles
 SCF Done:  E(RM062X) =  -276.318061359     A.U. after   10 cycles
 SCF Done:  E(RM062X) =  -276.319600726     A.U. after   10 cycles
 SCF Done:  E(RM062X) =  -276.323378588     A.U. after   10 cycles
 SCF Done:  E(RM062X) =  -276.329620547     A.U. after   10 cycles
 SCF Done:  E(RM062X) =  -276.334756662     A.U. after   11 cycles
 SCF Done:  E(RM062X) =  -276.337422372     A.U. after   11 cycles
 SCF Done:  E(RM062X) =  -276.338198274     A.U. after   10 cycles
 SCF Done:  E(RM062X) =  -276.338412336     A.U. after   10 cycles
 SCF Done:  E(RM062X) =  -276.339123939     A.U. after    5 cycles
 SCF Done:  E(RM062X) =  -276.339123956     A.U. after    5 cycles
 SCF Done:  E(RM062X) =  -276.339123964     A.U. after    4 cycles
 SCF Done:  E(RM062X) =  -276.339123967     A.U. after    4 cycles
 SCF Done:  E(RM062X) =  -276.339123968     A.U. after    3 cycles
 SCF Done:  E(RM062X) =  -276.339123973     A.U. after    4 cycles
 SCF Done:  E(RM062X) =  -276.339123969     A.U. after    4 cycles
 SCF Done:  E(RM062X) =  -276.339123970     A.U. after    3 cycles
 SCF Done:  E(RM062X) =  -276.339123970     A.U. after    3 cycles
 Optimization completed.
    -- Stationary point found.
 Normal termination of Gaussian 16 at Sun Sep 29 16:36:37 2019.

 ----------------------------------------------------------------------
 #P Geom=AllCheck Guess=TCheck SCRF=Check Test GenChk RM062X/CC-pVTZ Fr
 eq
 ----------------------------------------------------------------------

 Structure from the checkpoint file:  "/scratch/harms.n/gauss_scrdir/Gau-16871.chk"
 ------------------------------
 Gaussian input prepared by ASE
 ------------------------------
 Charge =  0 Multiplicity = 1

                         Standard orientation:
 ---------------------------------------------------------------------
 Center     Atomic      Atomic             Coordinates (Angstroms)
 Number     Number       Type             X           Y           Z
 ---------------------------------------------------------------------
      1          6           0       -0.781566   -0.242353    0.594870
      2          6           0       -0.050206    0.562278   -0.474484
      3          6           0        1.273865    1.159021    0.003815
      4          6           0       -2.117542   -0.817985    0.128028
      5          6           0        2.285196    0.140581    0.531405
      6          6           0       -3.153874    0.243200   -0.226401
      7          6           0        2.609766   -0.960515   -0.471662
      8          1           0       -2.519035   -1.460172    0.914310
      9          1           0       -1.944621   -1.463589   -0.737527
     10          1           0       -0.947392    0.393118    1.471705
     11          1           0       -0.144356   -1.064916    0.927947
     12          1           0       -0.687871    1.378525   -0.818803
     13          1           0        0.121980   -0.076341   -1.346133
     14          1           0        1.068126    1.893437    0.787151
     15          1           0        1.730065    1.709017   -0.823770
     16          1           0        3.202353    0.669190    0.797949
     17          1           0        1.915044   -0.305541    1.456897
     18          1           0       -3.300979    0.932089    0.607608
     19          1           0       -2.850472    0.830351   -1.092522
     20          1           0       -4.117136   -0.209833   -0.458944
     21          1           0        2.929597   -0.534756   -1.424771
     22          1           0        1.741736   -1.591242   -0.667470
     23          1           0        3.409130   -1.604707   -0.107058
 ---------------------------------------------------------------------

 SCF Done:  E(RM062X) =  -276.339123970     A.U. after    1 cycles

 The electronic state is 1-A.
 Alpha  occ. eigenvalues --  -10.52665 -10.52559 -10.52458 -10.52435 -10.52323
 Alpha  occ. eigenvalues --  -10.51951 -10.51899  -0.91310  -0.87600  -0.81997
 Alpha  occ. eigenvalues --   -0.76594  -0.71640  -0.66347  -0.62758  -0.54646
 Alpha  occ. eigenvalues --   -0.52953  -0.51678  -0.49442  -0.47872  -0.46215
 Alpha  occ. eigenvalues --   -0.44290  -0.43689  -0.42003  -0.39839  -0.39505
 Alpha  occ. eigenvalues --   -0.38762  -0.37294  -0.36629  -0.35962
 Alpha virt. eigenvalues --    0.06561   0.08308   0.08708   0.08974   0.11664
 Alpha virt. eigenvalues --    0.12348   0.12888   0.13849   0.14439   0.14948
 Alpha virt. eigenvalues --    0.15680   0.17215   0.17762   0.18086   0.18857

 Mulliken charges:
               1
     1  C   -0.287631
     2  C   -0.306511
     3  C   -0.285835
     4  C   -0.239432
     5  C   -0.257125
     6  C   -0.364962
     7  C   -0.372696
     8  H    0.126478
     9  H    0.125428
    10  H    0.145221
    11  H    0.147896
    12  H    0.157181
    13  H    0.151068
    14  H    0.138603
    15  H    0.141418
    16  H    0.134012
    17  H    0.137178
    18  H    0.114666
    19  H    0.116951
    20  H    0.117968
    21  H    0.121240
    22  H    0.118930
    23  H    0.119952
 Sum of Mulliken charges =  -0.00000

 Dipole moment (field-independent basis, Debye):
    X=              0.0253    Y=             -0.0058    Z=              0.0552  Tot=              0.0610
 Quadrupole moment (field-independent basis, Debye-Ang):
   XX=            -48.9361   YY=            -48.9116   ZZ=            -48.7408
   XY=              0.3317   XZ=             -0.1767   YZ=             -0.1016

  Exact polarizability:  97.990  -0.463  80.069   0.593   0.293  76.192
 Approx polarizability:  98.186   0.018  96.835   0.029   0.384  97.046

                      1                      2                      3
                      A                      A                      A
 Frequencies --     40.5847                77.7589               124.8339
 Red. masses --      2.5974                 2.4733                 1.8384
 Frc consts  --      0.0025                 0.0088                 0.0169
 IR Inten    --      0.0082                 0.0174                 0.0379

                      4                      5                      6
                      A                      A                      A
 Frequencies --    173.3406               223.3942               250.9004
 Red. masses --      1.4671                 1.6101                 1.7450
 Frc consts  --      0.0260                 0.0473                 0.0647
 IR Inten    --      0.0398                 0.0928                 0.0048

                      7                      8                      9
                      A                      A                      A
 Frequencies --    292.4390               296.4251               357.9613
 Red. masses --      1.3205                 1.6715                 2.0738
 Frc consts  --      0.0665                 0.0865                 0.1566
 IR Inten    --      0.0373                 0.0105                 0.2857

                     10                     11                     12
                      A                      A                      A
 Frequencies --    436.8685               517.3242               722.9113
 Red. masses --      2.1325                 2.2524                 1.1483
 Frc consts  --      0.2398                 0.3552                 0.3536
 IR Inten    --      0.2296                 0.1760                 7.1542

                     13                     14                     15
                      A                      A                      A
 Frequencies --    751.5067               799.5577               848.6673
 Red. masses --      1.2565                 1.2520                 2.3210
 Frc consts  --      0.4181                 0.4716                 0.9849
 IR Inten    --      0.5409                 3.5339                 0.4740

                     16                     17                     18
                      A                      A                      A
 Frequencies --    858.3339               905.7736               956.9698
 Red. masses --      1.4037                 1.8957                 1.6494
 Frc consts  --      0.6093                 0.9164                 0.8899
 IR Inten    --      1.1591                 1.0020                 1.1363

                     19                     20                     21
                      A                      A                      A
 Frequencies --    961.6954              1013.2731              1045.0716
 Red. masses --      1.4625                 1.7061                 1.4161
 Frc consts  --      0.7969                 1.0320                 0.9112
 IR Inten    --      0.3376                 1.3020                 0.1191

                     22                     23                     24
                      A                      A                      A
 Frequencies --   1072.0147              1095.9963              1121.8231
 Red. masses --      1.3103                 2.2188                 2.0270
 Frc consts  --      0.8872                 1.5703                 1.5030
 IR Inten    --      0.2717                 0.3383                 0.0761

                     25                     26                     27
                      A                      A                      A
 Frequencies --   1154.7522              1178.2210              1229.7955
 Red. masses --      1.9629                 2.0883                 1.4460
 Frc consts  --      1.5421                 1.7080                 1.2885
 IR Inten    --      0.6480                 0.5068                 1.6233

                     28                     29                     30
                      A                      A                      A
 Frequencies --   1262.8440              1297.7421              1307.8021
 Red. masses --      1.3599                 1.2540                 1.2194
 Frc consts  --      1.2778                 1.2443                 1.2288
 IR Inten    --      1.2087                 0.3887                 2.2325

                     31                     32                     33
                      A                      A                      A
 Frequencies --   1334.5320              1342.1615              1378.6751
 Red. masses --      1.0920                 1.2445                 1.3605
 Frc consts  --      1.1459                 1.3209                 1.5236
 IR Inten    --      0.3105                 1.5295                 1.9872

                     34                     35                     36
                      A                      A                      A
 Frequencies --   1380.9336              1390.7404              1410.3739
 Red. masses --      1.4120                 1.5260                 1.4719
 Frc consts  --      1.5865                 1.7390                 1.7250
 IR Inten    --      1.2623                 0.4885                 0.7948

                     37                     38                     39
                      A                      A                      A
 Frequencies --   1416.2509              1417.8951              1481.1102
 Red. masses --      1.2983                 1.3614                 1.0709
 Frc consts  --      1.5343                 1.6125                 1.3841
 IR Inten    --      7.2718                 6.3474                 0.2351

                     40                     41                     42
                      A                      A                      A
 Frequencies --   1490.8489              1494.1114              1497.8137
 Red. masses --      1.0762                 1.0705                 1.0605
 Frc consts  --      1.4093                 1.4080                 1.4018
 IR Inten    --      2.7727                 0.7806                 2.3327

                     43                     44                     45
                      A                      A                      A
 Frequencies --   1501.7876              1504.9531              1508.7832
 Red. masses --      1.0702                 1.0628                 1.0593
 Frc consts  --      1.4221                 1.4182                 1.4208
 IR Inten    --      7.9192                 5.6719                 7.3779

                     46                     47                     48
                      A                      A                      A
 Frequencies --   1513.2386              1518.8615              3032.1394
 Red. masses --      1.0623                 1.0774                 1.0656
 Frc consts  --      1.4332                 1.4644                 5.7721
 IR Inten    --      9.7124                 1.6868                 7.4921

                     49                     50                     51
                      A                      A                      A
 Frequencies --   3043.6860              3047.7246              3050.7149
 Red. masses --      1.0611                 1.0637                 1.0614
 Frc consts  --      5.7915                 5.8211                 5.8200
 IR Inten    --     28.9298                10.9152                23.9799

                     52                     53                     54
                      A                      A                      A
 Frequencies --   3056.9316              3060.0549              3061.8190
 Red. masses --      1.0422                 1.0384                 1.0633
 Frc consts  --      5.7380                 5.7287                 5.8730
 IR Inten    --     23.9189                20.3217                20.6131

                     55                     56                     57
                      A                      A                      A
 Frequencies --   3077.9544              3080.4783              3087.2509
 Red. masses --      1.0932                 1.0966                 1.0990
 Frc consts  --      6.1020                 6.1308                 6.1715
 IR Inten    --      6.1454                30.6298                16.3679

                     58                     59                     60
                      A                      A                      A
 Frequencies --   3095.8415              3101.0404              3124.1690
 Red. masses --      1.1014                 1.1010                 1.1019
 Frc consts  --      6.2194                 6.2381                 6.3367
 IR Inten    --     30.1018                73.6134                43.5080

                     61                     62                     63
                      A                      A                      A
 Frequencies --   3127.2534              3132.7589              3138.8308
 Red. masses --      1.1003                 1.1013                 1.1014
 Frc consts  --      6.3398                 6.3683                 6.3936
 IR Inten    --     33.5036                32.7518                35.0123

 - Thermochemistry -
 -------------------
 Temperature   298.150 Kelvin.  Pressure   1.00000 Atm.
 Atom     1 has atomic number  6 and mass  12.00000

 Molecular mass:   100.12520 amu.
 Principal axes and moments of inertia in atomic units:
                           1         2         3
     Eigenvalues --   326.639471653.585471772.10089
           X            0.99998  -0.00668   0.00011
           Y            0.00668   0.99995   0.00699
           Z           -0.00015  -0.00698   0.99998
 This molecule is an asymmetric top.
 Rotational symmetry number  1.
 Rotational temperatures (Kelvin)      0.26517     0.05238     0.04888
 Rotational constants (GHZ):           5.52518     1.09141     1.01842
 Zero-point vibrational energy     575872.1 (Joules/Mol)
                                  137.63674 (Kcal/Mol)
 Warning -- explicit consideration of  11 degrees of freedom as
           vibrations may cause significant error
 Vibrational temperatures:     58.39   111.88   179.61   249.40   321.41
          (Kelvin)            360.99   420.75   426.49   515.03   628.56
                              744.31  1040.11  1081.25  1150.39  1221.04
                             1234.95  1303.21  1376.87  1383.67  1457.87
                             1503.62  1542.39  1576.89  1614.05  1661.43
                             1695.20  1769.40  1816.95  1867.16  1881.64
                             1920.09  1931.07  1983.61  1986.86  2000.97
                             2029.21  2037.67  2040.03  2130.99  2145.00
                             2149.69  2155.02  2160.74  2165.29  2170.80
                             2177.21  2185.30  4362.57  4379.19  4385.00
                             4389.30  4398.24  4402.74  4405.27  4428.49
                             4432.12  4441.87  4454.23  4461.71  4494.98
                             4499.42  4507.34  4516.08

 Zero-point correction=                           0.219338 (Hartree/Particle)
 Thermal correction to Energy=                    0.228681
 Thermal correction to Enthalpy=                  0.229625
 Thermal correction to Gibbs Free Energy=         0.184928
 Sum of electronic and zero-point Energies=           -276.119786
 Sum of electronic and thermal Energies=              -276.110443
 Sum of electronic and thermal Enthalpies=            -276.109499
 Sum of electronic and thermal Free Energies=         -276.154196

                     E (Thermal)             CV                S
                      KCal/Mol        Cal/Mol-Kelvin    Cal/Mol-Kelvin
 Total                  143.500             33.668             94.074
 Electronic               0.000              0.000              0.000
 Translational            0.889              2.981             39.722
 Rotational               0.889              2.981             28.350
 Vibrational            141.722             27.707             26.002
 Vibration     1          0.594              1.981              5.230
 Vibration     2          0.599              1.964              3.947
 Vibration     3          0.610              1.928              3.024
 Vibration     4          0.627              1.875              2.399
 Vibration     5          0.649              1.805              1.931
 Vibration     6          0.663              1.761              1.724
 Vibration     7          0.688              1.688              1.460
 Vibration     8          0.690              1.680              1.437
 Vibration     9          0.733              1.559              1.131
 Vibration    10          0.797              1.390              0.837
 Vibration    11          0.872              1.212              0.616

                           ! Non-Optimized Parameters !
 Normal termination of Gaussian 16 at Sun Sep 29 19:19:36 2019.
