 Gaussian 16, Revision A.03,
 Gaussian 16:  EM64L-G16RevA.03 25-Dec-2016

 ----------------------------------------------------------------------
 #p m062x/cc-pVTZ opt=(calcfc,maxcycles=900,Tight) freq IOP(7/33=1,2/16
 =3) scf=(maxcycle=900)
 ----------------------------------------------------------------------

 ------------------------------
 Gaussian input prepared by ASE
 ------------------------------
 Symbolic Z-matrix:
 Charge =  0 Multiplicity = 1

 SCF Done:  E(RM062X) =  -276.297040343     A.U. after   11 cycles

  Exact polarizability:   0.000   0.000   0.000   0.000   0.000   0.000
 Approx polarizability:  99.364   0.585  98.053   1.454  -0.196  98.789

 SCF Done:  E(RM062X) =  -276.319742650     A.U. after   10 cycles
 SCF Done:  E(RM062X) =  -276.311891031     A.U. after   11 cycles
 SCF Done:  E(RM062X) =  -276.324598969     A.U. after   10 cycles
 SCF Done:  E(RM062X) =  -276.320630164     A.U. after   10 cycles
 SCF Done:  E(RM062X) =  -276.324043950     A.U. after   10 cycles
 SCF Done:  E(RM062X) =  -276.325136785     A.U. after    8 cycles
 SCF Done:  E(RM062X) =  -276.325908027     A.U. after    9 cycles
 SCF Done:  E(RM062X) =  -276.326436732     A.U. after    9 cycles
 SCF Done:  E(RM062X) =  -276.327141987     A.U. after   10 cycles
 SCF Done:  E(RM062X) =  -276.336627092     A.U. after    7 cycles
 SCF Done:  E(RM062X) =  -276.336627649     A.U. after    7 cycles
 SCF Done:  E(RM062X) =  -276.336627820     A.U. after    6 cycles
 SCF Done:  E(RM062X) =  -276.336627833     A.U. after    4 cycles
 SCF Done:  E(RM062X) =  -276.336627837     A.U. after    4 cycles
 SCF Done:  E(RM062X) =  -276.336627838     A.U. after    3 cycles
 SCF Done:  E(RM062X) =  -276.336627837     A.U. after    3 cycles
 SCF Done:  E(RM062X) =  -276.336627838     A.U. after    3 cycles
 SCF Done:  E(RM062X) =  -276.336627838     A.U. after    2 cycles
 Optimization completed.
    -- Stationary point found.

 The electronic state is 1-A.
 Alpha  occ. eigenvalues --  -10.52659 -10.52613 -10.52450 -10.52405 -10.52355
 Alpha  occ. eigenvalues --  -10.51947 -10.51931  -0.91180  -0.87633  -0.82052
 Alpha  occ. eigenvalues --   -0.76684  -0.71298  -0.65382  -0.64277  -0.54552
 Alpha  occ. eigenvalues --   -0.52262  -0.51371  -0.50574  -0.47148  -0.46412
 Alpha  occ. eigenvalues --   -0.44246  -0.43070  -0.42124  -0.41015  -0.39185
 Alpha  occ. eigenvalues --   -0.38524  -0.37233  -0.36580  -0.35831
 Alpha virt. eigenvalues --    0.06834   0.08008   0.08843   0.09194   0.11913
 Alpha virt. eigenvalues --    0.12145   0.12983   0.13523   0.13660   0.14866
 Alpha virt. eigenvalues --    0.15591   0.16542   0.17427   0.18115   0.19378

 Mulliken charges:
               1
     1  C   -0.264844
     2  C   -0.298242
     3  C   -0.292310
     4  C   -0.228233
     5  C   -0.235027
     6  C   -0.388979
     7  C   -0.378599
     8  H    0.125797
     9  H    0.125945
    10  H    0.132201
    11  H    0.133595
    12  H    0.141849
    13  H    0.147820
    14  H    0.158228
    15  H    0.139353
    16  H    0.123544
    17  H    0.127027
    18  H    0.120223
    19  H    0.124328
    20  H    0.123354
    21  H    0.122016
    22  H    0.118257
    23  H    0.122697
 Sum of Mulliken charges =  -0.00000

 Dipole moment (field-independent basis, Debye):
    X=              0.0292    Y=             -0.0974    Z=             -0.0028  Tot=              0.1017
 Quadrupole moment (field-independent basis, Debye-Ang):
   XX=            -48.6562   YY=            -48.9985   ZZ=            -48.7569
   XY=              0.1557   XZ=             -0.1392   YZ=              0.1006

 Normal termination of Gaussian 16 at Sat Sep 28 01:37:41 2019.

 ----------------------------------------------------------------------
 #P Geom=AllCheck Guess=TCheck SCRF=Check Test GenChk RM062X/CC-pVTZ Fr
 eq
 ----------------------------------------------------------------------

 Structure from the checkpoint file:  "/scratch/harms.n/gauss_scrdir/Gau-46892.chk"
 ------------------------------
 Gaussian input prepared by ASE
 ------------------------------
 Charge =  0 Multiplicity = 1

                         Standard orientation:
 ---------------------------------------------------------------------
 Center     Atomic      Atomic             Coordinates (Angstroms)
 Number     Number       Type             X           Y           Z
 ---------------------------------------------------------------------
      1          6           0        1.497652   -1.087466   -0.078310
      2          6           0        0.022876   -0.899291   -0.463316
      3          6           0       -0.877863   -0.530049    0.714483
      4          6           0        2.371361    0.139913   -0.338464
      5          6           0       -2.332494   -0.278864    0.324294
      6          6           0        1.914079    1.398321    0.390172
      7          6           0       -2.522534    0.968624   -0.532825
      8          1           0        2.389060    0.335473   -1.414061
      9          1           0        3.399512   -0.089881   -0.051311
     10          1           0        1.918661   -1.927858   -0.632435
     11          1           0        1.561186   -1.357431    0.980545
     12          1           0       -0.366683   -1.818727   -0.907117
     13          1           0       -0.045006   -0.135762   -1.243292
     14          1           0       -0.484996    0.355042    1.221907
     15          1           0       -0.834324   -1.343053    1.443930
     16          1           0       -2.718724   -1.152678   -0.207799
     17          1           0       -2.931680   -0.181644    1.231677
     18          1           0        0.926186    1.715485    0.053265
     19          1           0        1.859923    1.228516    1.467118
     20          1           0        2.602385    2.224687    0.214779
     21          1           0       -2.024323    0.875709   -1.497425
     22          1           0       -2.111799    1.846272   -0.029722
     23          1           0       -3.577842    1.158725   -0.726258
 ---------------------------------------------------------------------

 SCF Done:  E(RM062X) =  -276.336627838     A.U. after    1 cycles
