 Gaussian 16, Revision A.03,
 Gaussian 16:  EM64L-G16RevA.03 25-Dec-2016

 ----------------------------------------------------------------------
 #p m062x/cc-pVTZ opt=(calcfc,maxcycles=900,Tight) freq IOP(7/33=1,2/16
 =3) scf=(maxcycle=900)
 ----------------------------------------------------------------------

 ------------------------------
 Gaussian input prepared by ASE
 ------------------------------
 Symbolic Z-matrix:
 Charge =  0 Multiplicity = 1

 SCF Done:  E(RM062X) =  -276.292125362     A.U. after   11 cycles

  Exact polarizability:   0.000   0.000   0.000   0.000   0.000   0.000
 Approx polarizability: 100.202   0.801  97.290  -0.021  -0.089  98.142

 SCF Done:  E(RM062X) =  -276.316336934     A.U. after   10 cycles
 SCF Done:  E(RM062X) =  -276.316529977     A.U. after   10 cycles
 SCF Done:  E(RM062X) =  -276.317693283     A.U. after   10 cycles
 SCF Done:  E(RM062X) =  -276.302368265     A.U. after   10 cycles
 SCF Done:  E(RM062X) =  -276.321547472     A.U. after   10 cycles
 SCF Done:  E(RM062X) =  -276.322295698     A.U. after   10 cycles
 SCF Done:  E(RM062X) =  -276.281644892     A.U. after   11 cycles
 SCF Done:  E(RM062X) =  -276.326522604     A.U. after   10 cycles
 SCF Done:  E(RM062X) =  -276.329073997     A.U. after   10 cycles
 SCF Done:  E(RM062X) =  -276.336627319     A.U. after    5 cycles
 SCF Done:  E(RM062X) =  -276.336627456     A.U. after    5 cycles
 SCF Done:  E(RM062X) =  -276.336627621     A.U. after    5 cycles
 SCF Done:  E(RM062X) =  -276.336627796     A.U. after    6 cycles
 SCF Done:  E(RM062X) =  -276.336627837     A.U. after    6 cycles
 SCF Done:  E(RM062X) =  -276.336627837     A.U. after    5 cycles
 SCF Done:  E(RM062X) =  -276.336627838     A.U. after    3 cycles
 SCF Done:  E(RM062X) =  -276.336627823     A.U. after    4 cycles
 SCF Done:  E(RM062X) =  -276.336627837     A.U. after    4 cycles
 Optimization completed.
    -- Stationary point found.

 The electronic state is 1-A.
 Alpha  occ. eigenvalues --  -10.52659 -10.52613 -10.52450 -10.52405 -10.52355
 Alpha  occ. eigenvalues --  -10.51947 -10.51931  -0.91180  -0.87633  -0.82052
 Alpha  occ. eigenvalues --   -0.76684  -0.71298  -0.65382  -0.64277  -0.54552
 Alpha  occ. eigenvalues --   -0.52262  -0.51371  -0.50574  -0.47148  -0.46412
 Alpha  occ. eigenvalues --   -0.44246  -0.43071  -0.42123  -0.41015  -0.39185
 Alpha  occ. eigenvalues --   -0.38524  -0.37233  -0.36580  -0.35831
 Alpha virt. eigenvalues --    0.06834   0.08008   0.08843   0.09194   0.11913
 Alpha virt. eigenvalues --    0.12145   0.12983   0.13523   0.13660   0.14866
 Alpha virt. eigenvalues --    0.15591   0.16542   0.17427   0.18115   0.19378

 Mulliken charges:
               1
     1  C   -0.264845
     2  C   -0.298242
     3  C   -0.292308
     4  C   -0.228233
     5  C   -0.235027
     6  C   -0.388979
     7  C   -0.378599
     8  H    0.125945
     9  H    0.125797
    10  H    0.133595
    11  H    0.132201
    12  H    0.147820
    13  H    0.141849
    14  H    0.139353
    15  H    0.158227
    16  H    0.127027
    17  H    0.123543
    18  H    0.124328
    19  H    0.120222
    20  H    0.123354
    21  H    0.118257
    22  H    0.122016
    23  H    0.122698
 Sum of Mulliken charges =  -0.00000

 Dipole moment (field-independent basis, Debye):
    X=              0.0292    Y=              0.0974    Z=             -0.0028  Tot=              0.1017
 Quadrupole moment (field-independent basis, Debye-Ang):
   XX=            -48.6562   YY=            -48.9985   ZZ=            -48.7569
   XY=             -0.1557   XZ=             -0.1392   YZ=             -0.1006

 Normal termination of Gaussian 16 at Sat Sep 28 01:52:49 2019.

 ----------------------------------------------------------------------
 #P Geom=AllCheck Guess=TCheck SCRF=Check Test GenChk RM062X/CC-pVTZ Fr
 eq
 ----------------------------------------------------------------------

 Structure from the checkpoint file:  "/scratch/harms.n/gauss_scrdir/Gau-31830.chk"
 ------------------------------
 Gaussian input prepared by ASE
 ------------------------------
 Charge =  0 Multiplicity = 1

                         Standard orientation:
 ---------------------------------------------------------------------
 Center     Atomic      Atomic             Coordinates (Angstroms)
 Number     Number       Type             X           Y           Z
 ---------------------------------------------------------------------
      1          6           0        1.497658    1.087463   -0.078301
      2          6           0        0.022884    0.899303   -0.463321
      3          6           0       -0.877867    0.530074    0.714473
      4          6           0        2.371359   -0.139922   -0.338457
      5          6           0       -2.332493    0.278878    0.324267
      6          6           0        1.914059   -1.398330    0.390168
      7          6           0       -2.522522   -0.968648   -0.532799
      8          1           0        3.399509    0.089861   -0.051295
      9          1           0        2.389063   -0.335476   -1.414054
     10          1           0        1.561186    1.357421    0.980557
     11          1           0        1.918679    1.927855   -0.632417
     12          1           0       -0.045000    0.135773   -1.243296
     13          1           0       -0.366661    1.818743   -0.907126
     14          1           0       -0.834341    1.343087    1.443911
     15          1           0       -0.485002   -0.355009    1.221913
     16          1           0       -2.931698    0.181702    1.231642
     17          1           0       -2.718706    1.152670   -0.207873
     18          1           0        1.859904   -1.228533    1.467116
     19          1           0        0.926162   -1.715479    0.053257
     20          1           0        2.602355   -2.224704    0.214770
     21          1           0       -2.111827   -1.846280   -0.029636
     22          1           0       -2.024268   -0.875790   -1.497382
     23          1           0       -3.577826   -1.158737   -0.726268
 ---------------------------------------------------------------------

 SCF Done:  E(RM062X) =  -276.336627837     A.U. after    1 cycles
