 Gaussian 16, Revision A.03,
 Gaussian 16:  EM64L-G16RevA.03 25-Dec-2016

 ----------------------------------------------------------------------
 #p m062x/cc-pVTZ opt=(calcfc,maxcycles=900,Tight) freq IOP(7/33=1,2/16
 =3) scf=(maxcycle=900)
 ----------------------------------------------------------------------

 ------------------------------
 Gaussian input prepared by ASE
 ------------------------------
 Symbolic Z-matrix:
 Charge =  0 Multiplicity = 1

 SCF Done:  E(RM062X) =  -276.296042594     A.U. after   11 cycles
 SCF Done:  E(RM062X) =  -276.315170423     A.U. after   11 cycles
 SCF Done:  E(RM062X) =  -276.317486453     A.U. after   10 cycles
 SCF Done:  E(RM062X) =  -276.319336149     A.U. after   10 cycles
 SCF Done:  E(RM062X) =  -276.308763100     A.U. after   10 cycles
 SCF Done:  E(RM062X) =  -276.326115603     A.U. after   10 cycles
 SCF Done:  E(RM062X) =  -276.331417739     A.U. after   11 cycles
 SCF Done:  E(RM062X) =  -276.333231366     A.U. after    9 cycles
 SCF Done:  E(RM062X) =  -276.333877719     A.U. after   10 cycles
 SCF Done:  E(RM062X) =  -276.334514990     A.U. after    9 cycles
 SCF Done:  E(RM062X) =  -276.339843460     A.U. after    7 cycles
 SCF Done:  E(RM062X) =  -276.339858038     A.U. after    7 cycles
 SCF Done:  E(RM062X) =  -276.339865714     A.U. after    6 cycles
 SCF Done:  E(RM062X) =  -276.339869412     A.U. after    6 cycles
 SCF Done:  E(RM062X) =  -276.339870072     A.U. after    6 cycles
 SCF Done:  E(RM062X) =  -276.339870152     A.U. after    5 cycles
 SCF Done:  E(RM062X) =  -276.339870155     A.U. after    3 cycles
 SCF Done:  E(RM062X) =  -276.339870157     A.U. after    3 cycles
 SCF Done:  E(RM062X) =  -276.339870158     A.U. after    3 cycles
 Optimization completed.
    -- Stationary point found.
 Normal termination of Gaussian 16 at Sat Sep 28 03:59:33 2019.

 ----------------------------------------------------------------------
 #P Geom=AllCheck Guess=TCheck SCRF=Check Test GenChk RM062X/CC-pVTZ Fr
 eq
 ----------------------------------------------------------------------

 Structure from the checkpoint file:  "/scratch/harms.n/gauss_scrdir/Gau-38441.chk"
 ------------------------------
 Gaussian input prepared by ASE
 ------------------------------
 Charge =  0 Multiplicity = 1

                         Standard orientation:
 ---------------------------------------------------------------------
 Center     Atomic      Atomic             Coordinates (Angstroms)
 Number     Number       Type             X           Y           Z
 ---------------------------------------------------------------------
      1          6           0        0.767827    1.029498   -0.271508
      2          6           0       -0.000001    0.000006   -1.102398
      3          6           0       -0.767830   -1.029495   -0.271520
      4          6           0        1.749704    0.424936    0.732209
      5          6           0       -1.749705   -0.424947    0.732205
      6          6           0        2.797726   -0.472260    0.083098
      7          6           0       -2.797721    0.472263    0.083104
      8          1           0        1.202841   -0.142781    1.489161
      9          1           0        2.248703    1.236714    1.264770
     10          1           0        0.059991    1.668540    0.262647
     11          1           0        1.318125    1.686223   -0.950600
     12          1           0        0.693135   -0.526940   -1.761630
     13          1           0       -0.693138    0.526959   -1.761624
     14          1           0       -0.059999   -1.668547    0.262631
     15          1           0       -1.318130   -1.686208   -0.950623
     16          1           0       -2.248704   -1.236734    1.264752
     17          1           0       -1.202840    0.142754    1.489166
     18          1           0        2.345400   -1.360842   -0.358321
     19          1           0        3.324183    0.059900   -0.711582
     20          1           0        3.537535   -0.805827    0.809998
     21          1           0       -3.324160   -0.059881   -0.711600
     22          1           0       -2.345395    1.360859   -0.358284
     23          1           0       -3.537546    0.805806    0.810001
 ---------------------------------------------------------------------

 SCF Done:  E(RM062X) =  -276.339870158     A.U. after    1 cycles

 The electronic state is 1-A.
 Alpha  occ. eigenvalues --  -10.52628 -10.52628 -10.52451 -10.52445 -10.52330
 Alpha  occ. eigenvalues --  -10.51959 -10.51959  -0.91499  -0.87321  -0.81862
 Alpha  occ. eigenvalues --   -0.76809  -0.72031  -0.66549  -0.61579  -0.54973
 Alpha  occ. eigenvalues --   -0.54578  -0.50473  -0.49747  -0.46912  -0.46557
 Alpha  occ. eigenvalues --   -0.44388  -0.44125  -0.41596  -0.39971  -0.39737
 Alpha  occ. eigenvalues --   -0.39322  -0.36901  -0.36205  -0.36167
 Alpha virt. eigenvalues --    0.06371   0.08453   0.08747   0.09088   0.11575
 Alpha virt. eigenvalues --    0.12258   0.12869   0.14446   0.14615   0.15352
 Alpha virt. eigenvalues --    0.15490   0.17825   0.17866   0.18306   0.19744

 Mulliken charges:
               1
     1  C   -0.310316
     2  C   -0.342741
     3  C   -0.310320
     4  C   -0.255961
     5  C   -0.255958
     6  C   -0.370123
     7  C   -0.370125
     8  H    0.139391
     9  H    0.134963
    10  H    0.156232
    11  H    0.150855
    12  H    0.167076
    13  H    0.167076
    14  H    0.156233
    15  H    0.150855
    16  H    0.134963
    17  H    0.139391
    18  H    0.119146
    19  H    0.120440
    20  H    0.119668
    21  H    0.120440
    22  H    0.119146
    23  H    0.119668
 Sum of Mulliken charges =   0.00000

 Dipole moment (field-independent basis, Debye):
    X=              0.0000    Y=              0.0000    Z=              0.0605  Tot=              0.0605
 Quadrupole moment (field-independent basis, Debye-Ang):
   XX=            -48.9331   YY=            -48.8348   ZZ=            -48.8310
   XY=              0.5398   XZ=             -0.0000   YZ=             -0.0000

  Exact polarizability:  95.567  -1.170  78.514   0.000  -0.000  77.834
 Approx polarizability:  98.473  -0.067  96.681   0.000  -0.000  97.020

                      1                      2                      3
                      A                      A                      A
 Frequencies --     82.8853                84.2146               128.2508
 Red. masses --      2.5057                 3.0432                 1.8639
 Frc consts  --      0.0101                 0.0127                 0.0181
 IR Inten    --      0.0162                 0.0003                 0.0061

                      4                      5                      6
                      A                      A                      A
 Frequencies --    202.7472               207.7693               262.5574
 Red. masses --      1.1981                 2.2507                 1.2064
 Frc consts  --      0.0290                 0.0572                 0.0490
 IR Inten    --      0.0658                 0.0000                 0.0127

                      7                      8                      9
                      A                      A                      A
 Frequencies --    323.3087               337.4573               388.7064
 Red. masses --      1.6213                 2.1223                 1.8268
 Frc consts  --      0.0998                 0.1424                 0.1626
 IR Inten    --      0.0154                 0.0974                 0.2297

                     10                     11                     12
                      A                      A                      A
 Frequencies --    442.4769               535.4942               712.2889
 Red. masses --      1.8076                 2.2941                 1.1899
 Frc consts  --      0.2085                 0.3876                 0.3557
 IR Inten    --      0.2396                 0.0090                12.2376

                     13                     14                     15
                      A                      A                      A
 Frequencies --    751.6133               806.0575               833.7488
 Red. masses --      1.3798                 1.3953                 2.1353
 Frc consts  --      0.4593                 0.5341                 0.8746
 IR Inten    --      0.0152                 2.9232                 0.0846

                     16                     17                     18
                      A                      A                      A
 Frequencies --    880.4768               888.1667               952.4707
 Red. masses --      1.5805                 1.6012                 1.4637
 Frc consts  --      0.7219                 0.7442                 0.7823
 IR Inten    --      0.8739                 1.0401                 1.9216

                     19                     20                     21
                      A                      A                      A
 Frequencies --    964.9714              1005.3814              1051.8041
 Red. masses --      1.6758                 1.6386                 1.4606
 Frc consts  --      0.9194                 0.9759                 0.9520
 IR Inten    --      0.0557                 1.4425                 0.3363

                     22                     23                     24
                      A                      A                      A
 Frequencies --   1058.7970              1078.2535              1120.1496
 Red. masses --      1.2388                 1.7767                 2.0876
 Frc consts  --      0.8182                 1.2170                 1.5433
 IR Inten    --      0.1307                 0.0042                 0.0260

                     25                     26                     27
                      A                      A                      A
 Frequencies --   1159.4810              1171.5397              1222.8351
 Red. masses --      2.1605                 1.9487                 1.3494
 Frc consts  --      1.7114                 1.5759                 1.1888
 IR Inten    --      0.8289                 0.1754                 1.1275

                     28                     29                     30
                      A                      A                      A
 Frequencies --   1249.7218              1291.9139              1307.4082
 Red. masses --      1.4065                 1.2375                 1.1758
 Frc consts  --      1.2942                 1.2169                 1.1842
 IR Inten    --      0.1431                 0.8456                 2.0847

                     31                     32                     33
                      A                      A                      A
 Frequencies --   1333.9109              1357.2143              1374.2708
 Red. masses --      1.1044                 1.3945                 1.5788
 Frc consts  --      1.1578                 1.5134                 1.7568
 IR Inten    --      0.1881                 4.0703                 0.7578

                     34                     35                     36
                      A                      A                      A
 Frequencies --   1380.8558              1401.5452              1402.0366
 Red. masses --      1.3463                 1.4045                 1.4941
 Frc consts  --      1.5125                 1.6255                 1.7304
 IR Inten    --      0.1703                 1.0944                 0.4795

                     37                     38                     39
                      A                      A                      A
 Frequencies --   1415.9738              1417.9699              1479.4106
 Red. masses --      1.3054                 1.3210                 1.0664
 Frc consts  --      1.5421                 1.5649                 1.3751
 IR Inten    --      1.1431                11.1243                 0.0004

                     40                     41                     42
                      A                      A                      A
 Frequencies --   1488.8059              1497.5782              1501.0171
 Red. masses --      1.0803                 1.0684                 1.0552
 Frc consts  --      1.4108                 1.4118                 1.4007
 IR Inten    --      1.9693                12.3979                 2.7031

                     43                     44                     45
                      A                      A                      A
 Frequencies --   1502.0559              1505.5112              1513.3194
 Red. masses --      1.0507                 1.0569                 1.0718
 Frc consts  --      1.3967                 1.4114                 1.4462
 IR Inten    --      0.6632                15.4170                 3.7525

                     46                     47                     48
                      A                      A                      A
 Frequencies --   1513.9249              1522.5603              3046.8579
 Red. masses --      1.0690                 1.0795                 1.0625
 Frc consts  --      1.4435                 1.4745                 5.8112
 IR Inten    --      8.6147                 0.3912                43.7517

                     49                     50                     51
                      A                      A                      A
 Frequencies --   3049.1299              3053.0528              3055.3385
 Red. masses --      1.0615                 1.0576                 1.0475
 Frc consts  --      5.8148                 5.8080                 5.7611
 IR Inten    --      1.6876                14.8362                18.7707

                     52                     53                     54
                      A                      A                      A
 Frequencies --   3058.5429              3059.9145              3064.0376
 Red. masses --      1.0449                 1.0513                 1.0627
 Frc consts  --      5.7590                 5.7996                 5.8785
 IR Inten    --     28.4077                12.5075                 2.5821

                     55                     56                     57
                      A                      A                      A
 Frequencies --   3079.2108              3083.5968              3090.3223
 Red. masses --      1.1003                 1.0954                 1.1001
 Frc consts  --      6.1468                 6.1368                 6.1902
 IR Inten    --      3.8394                38.6137                38.1956

                     58                     59                     60
                      A                      A                      A
 Frequencies --   3095.8555              3098.5360              3124.6982
 Red. masses --      1.1012                 1.1028                 1.1014
 Frc consts  --      6.2185                 6.2384                 6.3361
 IR Inten    --     18.7884                77.0105                13.7721

                     61                     62                     63
                      A                      A                      A
 Frequencies --   3124.8020              3133.3476              3133.5618
 Red. masses --      1.1013                 1.1017                 1.1014
 Frc consts  --      6.3358                 6.3726                 6.3721
 IR Inten    --     60.4793                36.4269                29.2616

 - Thermochemistry -
 -------------------
 Temperature   298.150 Kelvin.  Pressure   1.00000 Atm.
 Atom     1 has atomic number  6 and mass  12.00000

 Molecular mass:   100.12520 amu.
 Principal axes and moments of inertia in atomic units:
                           1         2         3
     Eigenvalues --   368.084561426.888301452.88500
           X            0.99996  -0.00854   0.00000
           Y            0.00854   0.99996  -0.00000
           Z           -0.00000   0.00000   1.00000
 This molecule is an asymmetric top.
 Rotational symmetry number  1.
 Rotational temperatures (Kelvin)      0.23531     0.06070     0.05962
 Rotational constants (GHZ):           4.90306     1.26481     1.24218
 Zero-point vibrational energy     576969.2 (Joules/Mol)
                                  137.89894 (Kcal/Mol)
 Warning -- explicit consideration of  11 degrees of freedom as
           vibrations may cause significant error
 Vibrational temperatures:    119.25   121.17   184.52   291.71   298.93
          (Kelvin)            377.76   465.17   485.53   559.26   636.63
                              770.46  1024.82  1081.40  1159.74  1199.58
                             1266.81  1277.87  1370.39  1388.38  1446.52
                             1513.31  1523.37  1551.37  1611.65  1668.23
                             1685.58  1759.39  1798.07  1858.78  1881.07
                             1919.20  1952.73  1977.27  1986.74  2016.51
                             2017.22  2037.27  2040.14  2128.54  2142.06
                             2154.68  2159.63  2161.12  2166.09  2177.33
                             2178.20  2190.62  4383.75  4387.02  4392.66
                             4395.95  4400.56  4402.53  4408.47  4430.30
                             4436.61  4446.28  4454.25  4458.10  4495.74
                             4495.89  4508.19  4508.50

 Zero-point correction=                           0.219756 (Hartree/Particle)
 Thermal correction to Energy=                    0.228826
 Thermal correction to Enthalpy=                  0.229770
 Thermal correction to Gibbs Free Energy=         0.186318
 Sum of electronic and zero-point Energies=           -276.120114
 Sum of electronic and thermal Energies=              -276.111044
 Sum of electronic and thermal Enthalpies=            -276.110100
 Sum of electronic and thermal Free Energies=         -276.153553

                     E (Thermal)             CV                S
                      KCal/Mol        Cal/Mol-Kelvin    Cal/Mol-Kelvin
 Total                  143.591             33.414             91.454
 Electronic               0.000              0.000              0.000
 Translational            0.889              2.981             39.722
 Rotational               0.889              2.981             28.125
 Vibrational            141.813             27.452             23.607
 Vibration     1          0.600              1.961              3.821
 Vibration     2          0.601              1.960              3.790
 Vibration     3          0.611              1.925              2.972
 Vibration     4          0.639              1.836              2.108
 Vibration     5          0.641              1.829              2.063
 Vibration     6          0.670              1.741              1.645
 Vibration     7          0.708              1.629              1.293
 Vibration     8          0.718              1.601              1.224
 Vibration     9          0.757              1.494              1.005
 Vibration    10          0.802              1.377              0.819
 Vibration    11          0.890              1.172              0.575

 Optimization completed.
    -- Stationary point found.
 Normal termination of Gaussian 16 at Sat Sep 28 07:57:05 2019.
