 Gaussian 16, Revision A.03,
 Gaussian 16:  EM64L-G16RevA.03 25-Dec-2016

 ----------------------------------------------------------------------
 #p m062x/cc-pVTZ opt=(calcfc,maxcycles=900,Tight) freq IOP(7/33=1,2/16
 =3) scf=(maxcycle=900)
 ----------------------------------------------------------------------

 ------------------------------
 Gaussian input prepared by ASE
 ------------------------------
 Symbolic Z-matrix:
 Charge =  0 Multiplicity = 1

 SCF Done:  E(RM062X) =  -276.328434746     A.U. after   11 cycles
 SCF Done:  E(RM062X) =  -276.337653316     A.U. after   12 cycles
 SCF Done:  E(RM062X) =  -276.309248666     A.U. after   12 cycles
 SCF Done:  E(RM062X) =  -276.337216105     A.U. after   10 cycles
 SCF Done:  E(RM062X) =  -276.339150820     A.U. after    8 cycles
 SCF Done:  E(RM062X) =  -276.338696845     A.U. after   10 cycles
 SCF Done:  E(RM062X) =  -276.339817089     A.U. after    9 cycles
 SCF Done:  E(RM062X) =  -276.339862752     A.U. after    8 cycles
 SCF Done:  E(RM062X) =  -276.339868383     A.U. after    7 cycles
 SCF Done:  E(RM062X) =  -276.339869888     A.U. after    6 cycles
 SCF Done:  E(RM062X) =  -276.339870085     A.U. after    5 cycles
 SCF Done:  E(RM062X) =  -276.339870151     A.U. after    5 cycles
 SCF Done:  E(RM062X) =  -276.339870157     A.U. after    4 cycles
 SCF Done:  E(RM062X) =  -276.339870158     A.U. after    3 cycles
 SCF Done:  E(RM062X) =  -276.339870158     A.U. after    2 cycles
 SCF Done:  E(RM062X) =  -276.339870158     A.U. after    3 cycles
 SCF Done:  E(RM062X) =  -276.339870158     A.U. after    1 cycles
 Optimization completed on the basis of negligible forces.
    -- Stationary point found.
 Normal termination of Gaussian 16 at Sun Sep 29 20:57:19 2019.

 ----------------------------------------------------------------------
 #P Geom=AllCheck Guess=TCheck SCRF=Check Test GenChk RM062X/CC-pVTZ Fr
 eq
 ----------------------------------------------------------------------

 Structure from the checkpoint file:  "/scratch/harms.n/gauss_scrdir/Gau-36773.chk"
 ------------------------------
 Gaussian input prepared by ASE
 ------------------------------
 Charge =  0 Multiplicity = 1

                         Standard orientation:
 ---------------------------------------------------------------------
 Center     Atomic      Atomic             Coordinates (Angstroms)
 Number     Number       Type             X           Y           Z
 ---------------------------------------------------------------------
      1          6           0        0.767842    1.029523    0.271456
      2          6           0       -0.000002    0.000086    1.102399
      3          6           0       -0.767820   -1.029468    0.271578
      4          6           0        1.749709    0.424900   -0.732234
      5          6           0       -1.749699   -0.424985   -0.732184
      6          6           0        2.797709   -0.472288   -0.083075
      7          6           0       -2.797736    0.472237   -0.083132
      8          1           0        2.248723    1.236645   -1.264830
      9          1           0        1.202837   -0.142841   -1.489161
     10          1           0        1.318155    1.686268    0.950517
     11          1           0        0.060017    1.668555   -0.262727
     12          1           0       -0.693148    0.527086    1.761578
     13          1           0        0.693121   -0.526818    1.761679
     14          1           0       -1.318117   -1.686147    0.950716
     15          1           0       -0.059979   -1.668544   -0.262531
     16          1           0       -1.202840    0.142694   -1.489166
     17          1           0       -2.248680   -1.236805   -1.264698
     18          1           0        2.345363   -1.360839    0.358383
     19          1           0        3.537518   -0.805905   -0.809954
     20          1           0        3.324170    0.059901    0.711583
     21          1           0       -3.537548    0.805752   -0.810053
     22          1           0       -2.345424    1.360851    0.358235
     23          1           0       -3.324187   -0.059884    0.711578
 ---------------------------------------------------------------------

 SCF Done:  E(RM062X) =  -276.339870158     A.U. after    1 cycles

 The electronic state is 1-A.
 Alpha  occ. eigenvalues --  -10.52628 -10.52628 -10.52451 -10.52445 -10.52330
 Alpha  occ. eigenvalues --  -10.51959 -10.51959  -0.91499  -0.87321  -0.81862
 Alpha  occ. eigenvalues --   -0.76809  -0.72031  -0.66549  -0.61579  -0.54973
 Alpha  occ. eigenvalues --   -0.54578  -0.50473  -0.49747  -0.46912  -0.46557
 Alpha  occ. eigenvalues --   -0.44388  -0.44125  -0.41596  -0.39971  -0.39737
 Alpha  occ. eigenvalues --   -0.39322  -0.36901  -0.36205  -0.36167
 Alpha virt. eigenvalues --    0.06371   0.08453   0.08747   0.09088   0.11575
 Alpha virt. eigenvalues --    0.12258   0.12869   0.14446   0.14615   0.15352
 Alpha virt. eigenvalues --    0.15490   0.17825   0.17866   0.18306   0.19744

 Mulliken charges:
               1
     1  C   -0.310318
     2  C   -0.342741
     3  C   -0.310318
     4  C   -0.255959
     5  C   -0.255961
     6  C   -0.370124
     7  C   -0.370123
     8  H    0.134963
     9  H    0.139391
    10  H    0.150855
    11  H    0.156232
    12  H    0.167076
    13  H    0.167075
    14  H    0.150855
    15  H    0.156233
    16  H    0.139392
    17  H    0.134963
    18  H    0.119147
    19  H    0.119668
    20  H    0.120440
    21  H    0.119668
    22  H    0.119146
    23  H    0.120440
 Sum of Mulliken charges =  -0.00000

 Dipole moment (field-independent basis, Debye):
    X=              0.0000    Y=              0.0000    Z=             -0.0605  Tot=              0.0605
 Quadrupole moment (field-independent basis, Debye-Ang):
   XX=            -48.9331   YY=            -48.8348   ZZ=            -48.8310
   XY=              0.5398   XZ=             -0.0000   YZ=              0.0000

  Exact polarizability:  95.567  -1.170  78.514   0.000  -0.000  77.834
 Approx polarizability:  98.473  -0.067  96.681   0.000   0.000  97.020

                      1                      2                      3
                      A                      A                      A
 Frequencies --     82.8851                84.2155               128.2491
 Red. masses --      2.5057                 3.0432                 1.8639
 Frc consts  --      0.0101                 0.0127                 0.0181
 IR Inten    --      0.0162                 0.0003                 0.0061

                      4                      5                      6
                      A                      A                      A
 Frequencies --    202.7439               207.7685               262.5565
 Red. masses --      1.1981                 2.2507                 1.2064
 Frc consts  --      0.0290                 0.0572                 0.0490
 IR Inten    --      0.0658                 0.0000                 0.0127

                      7                      8                      9
                      A                      A                      A
 Frequencies --    323.3083               337.4576               388.7063
 Red. masses --      1.6213                 2.1222                 1.8268
 Frc consts  --      0.0998                 0.1424                 0.1626
 IR Inten    --      0.0154                 0.0974                 0.2297

                     10                     11                     12
                      A                      A                      A
 Frequencies --    442.4755               535.4945               712.2882
 Red. masses --      1.8076                 2.2941                 1.1899
 Frc consts  --      0.2085                 0.3876                 0.3557
 IR Inten    --      0.2396                 0.0090                12.2375

                     13                     14                     15
                      A                      A                      A
 Frequencies --    751.6133               806.0564               833.7484
 Red. masses --      1.3798                 1.3953                 2.1353
 Frc consts  --      0.4593                 0.5341                 0.8746
 IR Inten    --      0.0152                 2.9233                 0.0846

                     16                     17                     18
                      A                      A                      A
 Frequencies --    880.4765               888.1659               952.4704
 Red. masses --      1.5805                 1.6012                 1.4637
 Frc consts  --      0.7219                 0.7442                 0.7823
 IR Inten    --      0.8739                 1.0401                 1.9216

                     19                     20                     21
                      A                      A                      A
 Frequencies --    964.9711              1005.3806              1051.8042
 Red. masses --      1.6758                 1.6386                 1.4606
 Frc consts  --      0.9194                 0.9759                 0.9520
 IR Inten    --      0.0557                 1.4425                 0.3363

                     22                     23                     24
                      A                      A                      A
 Frequencies --   1058.7968              1078.2517              1120.1491
 Red. masses --      1.2388                 1.7767                 2.0876
 Frc consts  --      0.8182                 1.2170                 1.5433
 IR Inten    --      0.1307                 0.0042                 0.0260

                     25                     26                     27
                      A                      A                      A
 Frequencies --   1159.4818              1171.5395              1222.8351
 Red. masses --      2.1605                 1.9487                 1.3494
 Frc consts  --      1.7114                 1.5759                 1.1888
 IR Inten    --      0.8289                 0.1754                 1.1275

                     28                     29                     30
                      A                      A                      A
 Frequencies --   1249.7221              1291.9136              1307.4077
 Red. masses --      1.4065                 1.2375                 1.1758
 Frc consts  --      1.2942                 1.2169                 1.1842
 IR Inten    --      0.1431                 0.8456                 2.0847

                     31                     32                     33
                      A                      A                      A
 Frequencies --   1333.9109              1357.2136              1374.2706
 Red. masses --      1.1044                 1.3945                 1.5788
 Frc consts  --      1.1578                 1.5134                 1.7568
 IR Inten    --      0.1881                 4.0703                 0.7578

                     34                     35                     36
                      A                      A                      A
 Frequencies --   1380.8547              1401.5451              1402.0365
 Red. masses --      1.3464                 1.4045                 1.4941
 Frc consts  --      1.5125                 1.6255                 1.7304
 IR Inten    --      0.1702                 1.0944                 0.4795

                     37                     38                     39
                      A                      A                      A
 Frequencies --   1415.9737              1417.9697              1479.4108
 Red. masses --      1.3054                 1.3210                 1.0664
 Frc consts  --      1.5421                 1.5649                 1.3751
 IR Inten    --      1.1430                11.1242                 0.0004

                     40                     41                     42
                      A                      A                      A
 Frequencies --   1488.8058              1497.5785              1501.0173
 Red. masses --      1.0803                 1.0684                 1.0552
 Frc consts  --      1.4108                 1.4118                 1.4007
 IR Inten    --      1.9693                12.3975                 2.7036

                     43                     44                     45
                      A                      A                      A
 Frequencies --   1502.0560              1505.5117              1513.3194
 Red. masses --      1.0507                 1.0569                 1.0718
 Frc consts  --      1.3967                 1.4114                 1.4462
 IR Inten    --      0.6631                15.4166                 3.7525

                     46                     47                     48
                      A                      A                      A
 Frequencies --   1513.9248              1522.5606              3046.8575
 Red. masses --      1.0690                 1.0795                 1.0625
 Frc consts  --      1.4435                 1.4745                 5.8112
 IR Inten    --      8.6153                 0.3910                43.7526

                     49                     50                     51
                      A                      A                      A
 Frequencies --   3049.1295              3053.0541              3055.3397
 Red. masses --      1.0615                 1.0576                 1.0475
 Frc consts  --      5.8148                 5.8080                 5.7611
 IR Inten    --      1.6876                14.8355                18.7715

                     52                     53                     54
                      A                      A                      A
 Frequencies --   3058.5439              3059.9155              3064.0393
 Red. masses --      1.0449                 1.0513                 1.0627
 Frc consts  --      5.7591                 5.7996                 5.8785
 IR Inten    --     28.4057                12.5079                 2.5827

                     55                     56                     57
                      A                      A                      A
 Frequencies --   3079.2112              3083.5975              3090.3236
 Red. masses --      1.1003                 1.0954                 1.1001
 Frc consts  --      6.1468                 6.1368                 6.1902
 IR Inten    --      3.8411                38.6176                38.1949

                     58                     59                     60
                      A                      A                      A
 Frequencies --   3095.8561              3098.5378              3124.6997
 Red. masses --      1.1012                 1.1028                 1.1014
 Frc consts  --      6.2185                 6.2384                 6.3361
 IR Inten    --     18.7857                77.0093                13.7725

                     61                     62                     63
                      A                      A                      A
 Frequencies --   3124.8036              3133.3474              3133.5616
 Red. masses --      1.1013                 1.1017                 1.1014
 Frc consts  --      6.3358                 6.3726                 6.3721
 IR Inten    --     60.4775                36.4287                29.2610

 - Thermochemistry -
 -------------------
 Temperature   298.150 Kelvin.  Pressure   1.00000 Atm.
 Atom     1 has atomic number  6 and mass  12.00000

 Molecular mass:   100.12520 amu.
 Principal axes and moments of inertia in atomic units:
                           1         2         3
     Eigenvalues --   368.085151426.888531452.88455
           X            0.99996  -0.00854   0.00000
           Y            0.00854   0.99996  -0.00000
           Z           -0.00000   0.00000   1.00000
 This molecule is an asymmetric top.
 Rotational symmetry number  1.
 Rotational temperatures (Kelvin)      0.23531     0.06070     0.05962
 Rotational constants (GHZ):           4.90305     1.26481     1.24218
 Zero-point vibrational energy     576969.2 (Joules/Mol)
                                  137.89894 (Kcal/Mol)
 Warning -- explicit consideration of  11 degrees of freedom as
           vibrations may cause significant error
 Vibrational temperatures:    119.25   121.17   184.52   291.70   298.93
          (Kelvin)            377.76   465.17   485.53   559.26   636.62
                              770.46  1024.82  1081.40  1159.74  1199.58
                             1266.81  1277.87  1370.39  1388.38  1446.52
                             1513.31  1523.37  1551.36  1611.64  1668.24
                             1685.58  1759.39  1798.07  1858.78  1881.07
                             1919.20  1952.73  1977.27  1986.74  2016.51
                             2017.22  2037.27  2040.14  2128.54  2142.06
                             2154.68  2159.63  2161.12  2166.10  2177.33
                             2178.20  2190.63  4383.75  4387.02  4392.66
                             4395.95  4400.56  4402.54  4408.47  4430.30
                             4436.61  4446.29  4454.25  4458.10  4495.75
                             4495.90  4508.19  4508.50

 Zero-point correction=                           0.219756 (Hartree/Particle)
 Thermal correction to Energy=                    0.228826
 Thermal correction to Enthalpy=                  0.229770
 Thermal correction to Gibbs Free Energy=         0.186318
 Sum of electronic and zero-point Energies=           -276.120114
 Sum of electronic and thermal Energies=              -276.111044
 Sum of electronic and thermal Enthalpies=            -276.110100
 Sum of electronic and thermal Free Energies=         -276.153553

                     E (Thermal)             CV                S
                      KCal/Mol        Cal/Mol-Kelvin    Cal/Mol-Kelvin
 Total                  143.591             33.414             91.454
 Electronic               0.000              0.000              0.000
 Translational            0.889              2.981             39.722
 Rotational               0.889              2.981             28.125
 Vibrational            141.813             27.452             23.607
 Vibration     1          0.600              1.961              3.821
 Vibration     2          0.601              1.960              3.790
 Vibration     3          0.611              1.925              2.972
 Vibration     4          0.639              1.836              2.108
 Vibration     5          0.641              1.829              2.063
 Vibration     6          0.670              1.741              1.645
 Vibration     7          0.708              1.629              1.293
 Vibration     8          0.718              1.601              1.224
 Vibration     9          0.757              1.494              1.005
 Vibration    10          0.802              1.377              0.819
 Vibration    11          0.890              1.172              0.575

 Optimization completed on the basis of negligible forces.
    -- Stationary point found.
 Normal termination of Gaussian 16 at Sun Sep 29 23:49:32 2019.
