 Gaussian 16, Revision A.03,
 Gaussian 16:  EM64L-G16RevA.03 25-Dec-2016

 ----------------------------------------------------------------------
 #p m062x/cc-pVTZ opt=(calcfc,maxcycles=900,Tight) freq IOP(7/33=1,2/16
 =3) scf=(maxcycle=900)
 ----------------------------------------------------------------------

 ------------------------------
 Gaussian input prepared by ASE
 ------------------------------
 Symbolic Z-matrix:
 Charge =  0 Multiplicity = 1

 SCF Done:  E(RM062X) =  -276.323663558     A.U. after   11 cycles
 SCF Done:  E(RM062X) =  -276.336663690     A.U. after   11 cycles
 SCF Done:  E(RM062X) =  -276.335897800     A.U. after   10 cycles
 SCF Done:  E(RM062X) =  -276.337320627     A.U. after   10 cycles
 SCF Done:  E(RM062X) =  -276.339198564     A.U. after    9 cycles
 SCF Done:  E(RM062X) =  -276.339472064     A.U. after    9 cycles
 SCF Done:  E(RM062X) =  -276.339547961     A.U. after    9 cycles
 SCF Done:  E(RM062X) =  -276.339557233     A.U. after    8 cycles
 SCF Done:  E(RM062X) =  -276.339571978     A.U. after    8 cycles
 SCF Done:  E(RM062X) =  -276.339573721     A.U. after    6 cycles
 SCF Done:  E(RM062X) =  -276.339573940     A.U. after    5 cycles
 SCF Done:  E(RM062X) =  -276.339574101     A.U. after    5 cycles
 SCF Done:  E(RM062X) =  -276.339574241     A.U. after    5 cycles
 SCF Done:  E(RM062X) =  -276.339574255     A.U. after    4 cycles
 SCF Done:  E(RM062X) =  -276.339574256     A.U. after    3 cycles
 SCF Done:  E(RM062X) =  -276.339574256     A.U. after    3 cycles
 SCF Done:  E(RM062X) =  -276.339574256     A.U. after    3 cycles
 SCF Done:  E(RM062X) =  -276.339574256     A.U. after    3 cycles
 Optimization completed.
    -- Stationary point found.
 Normal termination of Gaussian 16 at Sun Sep 29 20:47:11 2019.

 ----------------------------------------------------------------------
 #P Geom=AllCheck Guess=TCheck SCRF=Check Test GenChk RM062X/CC-pVTZ Fr
 eq
 ----------------------------------------------------------------------

 Structure from the checkpoint file:  "/scratch/harms.n/gauss_scrdir/Gau-17454.chk"
 ------------------------------
 Gaussian input prepared by ASE
 ------------------------------
 Charge =  0 Multiplicity = 1

                         Standard orientation:
 ---------------------------------------------------------------------
 Center     Atomic      Atomic             Coordinates (Angstroms)
 Number     Number       Type             X           Y           Z
 ---------------------------------------------------------------------
      1          6           0       -1.441106   -1.023038    0.461356
      2          6           0        0.018719   -0.624826    0.676034
      3          6           0        0.819227   -0.531911   -0.619589
      4          6           0       -2.219270   -0.091643   -0.468962
      5          6           0        2.317778   -0.336418   -0.400935
      6          6           0       -2.203543    1.363597   -0.014530
      7          6           0        2.655262    0.960510    0.327141
      8          1           0       -3.251613   -0.441333   -0.528276
      9          1           0       -1.817283   -0.162022   -1.482110
     10          1           0       -1.946259   -1.055226    1.430494
     11          1           0       -1.476756   -2.038605    0.058143
     12          1           0        0.493716   -1.358766    1.333530
     13          1           0        0.061103    0.328683    1.206863
     14          1           0        0.441637    0.295826   -1.227759
     15          1           0        0.653494   -1.442356   -1.203192
     16          1           0        2.712358   -1.185426    0.163719
     17          1           0        2.822944   -0.347638   -1.368654
     18          1           0       -1.198744    1.785883   -0.060661
     19          1           0       -2.848582    1.980109   -0.639624
     20          1           0       -2.551129    1.451734    1.016668
     21          1           0        2.275771    0.956472    1.348634
     22          1           0        2.214743    1.817059   -0.187478
     23          1           0        3.732196    1.117985    0.376619
 ---------------------------------------------------------------------

 SCF Done:  E(RM062X) =  -276.339574256     A.U. after    1 cycles

 The electronic state is 1-A.
 Alpha  occ. eigenvalues --  -10.52656 -10.52567 -10.52456 -10.52450 -10.52333
 Alpha  occ. eigenvalues --  -10.51945 -10.51931  -0.91362  -0.87609  -0.81989
 Alpha  occ. eigenvalues --   -0.76505  -0.71679  -0.66446  -0.62650  -0.54603
 Alpha  occ. eigenvalues --   -0.53337  -0.51060  -0.50258  -0.47044  -0.46454
 Alpha  occ. eigenvalues --   -0.44426  -0.43383  -0.42426  -0.39631  -0.39550
 Alpha  occ. eigenvalues --   -0.38936  -0.37011  -0.36654  -0.36130
 Alpha virt. eigenvalues --    0.06418   0.08265   0.08723   0.08978   0.11959
 Alpha virt. eigenvalues --    0.12362   0.12620   0.13676   0.14092   0.15312
 Alpha virt. eigenvalues --    0.16243   0.16417   0.17506   0.17959   0.19368

 Mulliken charges:
               1
     1  C   -0.290277
     2  C   -0.298098
     3  C   -0.282893
     4  C   -0.255993
     5  C   -0.242195
     6  C   -0.370891
     7  C   -0.373112
     8  H    0.133885
     9  H    0.139360
    10  H    0.140944
    11  H    0.138121
    12  H    0.149267
    13  H    0.153896
    14  H    0.145993
    15  H    0.143912
    16  H    0.124893
    17  H    0.126101
    18  H    0.116312
    19  H    0.120626
    20  H    0.120802
    21  H    0.121769
    22  H    0.117064
    23  H    0.120512
 Sum of Mulliken charges =  -0.00000

 Dipole moment (field-independent basis, Debye):
    X=             -0.0073    Y=             -0.0991    Z=             -0.0487  Tot=              0.1107
 Quadrupole moment (field-independent basis, Debye-Ang):
   XX=            -48.6697   YY=            -49.1149   ZZ=            -48.7110
   XY=             -0.1553   XZ=             -0.2040   YZ=             -0.2627

  Exact polarizability:  95.189   0.323  81.984   0.375   0.355  76.680
 Approx polarizability:  98.160  -0.177  97.272   0.196   0.000  96.858

                      1                      2                      3
                      A                      A                      A
 Frequencies --     46.2798                81.3805               138.5084
 Red. masses --      2.7229                 2.1566                 2.0185
 Frc consts  --      0.0034                 0.0084                 0.0228
 IR Inten    --      0.0007                 0.0017                 0.0195

                      4                      5                      6
                      A                      A                      A
 Frequencies --    168.6298               229.2570               252.8526
 Red. masses --      1.4459                 1.4425                 2.0575
 Frc consts  --      0.0242                 0.0447                 0.0775
 IR Inten    --      0.0354                 0.0338                 0.0166

                      7                      8                      9
                      A                      A                      A
 Frequencies --    290.7200               305.2816               356.8546
 Red. masses --      1.4380                 1.4677                 1.9612
 Frc consts  --      0.0716                 0.0806                 0.1472
 IR Inten    --      0.0767                 0.0175                 0.2792

                     10                     11                     12
                      A                      A                      A
 Frequencies --    442.1667               522.3952               724.9192
 Red. masses --      2.1840                 2.1858                 1.1717
 Frc consts  --      0.2516                 0.3514                 0.3628
 IR Inten    --      0.0919                 0.3119                 3.9165

                     13                     14                     15
                      A                      A                      A
 Frequencies --    767.9086               798.0102               845.9198
 Red. masses --      1.1874                 1.3525                 1.6783
 Frc consts  --      0.4125                 0.5075                 0.7076
 IR Inten    --      5.6812                 1.2639                 0.1844

                     16                     17                     18
                      A                      A                      A
 Frequencies --    853.4714               908.0466               949.7549
 Red. masses --      1.8728                 1.7396                 1.7543
 Frc consts  --      0.8038                 0.8451                 0.9323
 IR Inten    --      0.0320                 1.5833                 1.3250

                     19                     20                     21
                      A                      A                      A
 Frequencies --    967.4747              1012.0184              1046.7072
 Red. masses --      1.3572                 1.7841                 1.4074
 Frc consts  --      0.7485                 1.0766                 0.9085
 IR Inten    --      0.6155                 1.5624                 0.8024

                     22                     23                     24
                      A                      A                      A
 Frequencies --   1069.7986              1093.7051              1121.8884
 Red. masses --      1.2447                 2.4029                 1.9642
 Frc consts  --      0.8393                 1.6935                 1.4566
 IR Inten    --      0.3161                 0.4437                 0.0331

                     25                     26                     27
                      A                      A                      A
 Frequencies --   1163.5979              1169.8978              1232.2168
 Red. masses --      1.9917                 2.0531                 1.4731
 Frc consts  --      1.5889                 1.6556                 1.3178
 IR Inten    --      0.1528                 0.4114                 1.4446

                     28                     29                     30
                      A                      A                      A
 Frequencies --   1262.0377              1296.7448              1314.7195
 Red. masses --      1.3671                 1.2406                 1.2407
 Frc consts  --      1.2829                 1.2291                 1.2635
 IR Inten    --      0.4520                 0.2138                 0.6258

                     31                     32                     33
                      A                      A                      A
 Frequencies --   1327.2621              1343.6057              1377.5320
 Red. masses --      1.1442                 1.2114                 1.3603
 Frc consts  --      1.1876                 1.2885                 1.5208
 IR Inten    --      1.6046                 1.0336                 1.0073

                     34                     35                     36
                      A                      A                      A
 Frequencies --   1379.2150              1390.5808              1409.1726
 Red. masses --      1.3764                 1.5109                 1.4713
 Frc consts  --      1.5427                 1.7214                 1.7214
 IR Inten    --      3.6481                 1.1988                 0.4387

                     37                     38                     39
                      A                      A                      A
 Frequencies --   1415.8906              1418.0043              1480.7394
 Red. masses --      1.3533                 1.3174                 1.0692
 Frc consts  --      1.5985                 1.5607                 1.3813
 IR Inten    --      2.3057                10.7514                 0.7442

                     40                     41                     42
                      A                      A                      A
 Frequencies --   1492.7086              1494.2430              1497.7370
 Red. masses --      1.0787                 1.0679                 1.0562
 Frc consts  --      1.4162                 1.4048                 1.3960
 IR Inten    --      0.7812                 2.7244                 2.0543

                     43                     44                     45
                      A                      A                      A
 Frequencies --   1501.6528              1505.0061              1509.7096
 Red. masses --      1.0773                 1.0610                 1.0646
 Frc consts  --      1.4313                 1.4159                 1.4297
 IR Inten    --     11.2371                 3.2812                 9.0435

                     46                     47                     48
                      A                      A                      A
 Frequencies --   1513.3993              1519.3389              3036.5744
 Red. masses --      1.0606                 1.0743                 1.0602
 Frc consts  --      1.4312                 1.4611                 5.7596
 IR Inten    --      7.1903                 1.3157                 5.2629

                     49                     50                     51
                      A                      A                      A
 Frequencies --   3043.7034              3049.3979              3051.6542
 Red. masses --      1.0619                 1.0650                 1.0574
 Frc consts  --      5.7959                 5.8346                 5.8016
 IR Inten    --     28.4680                11.8440                41.1485

                     52                     53                     54
                      A                      A                      A
 Frequencies --   3056.0840              3057.9946              3061.4629
 Red. masses --      1.0455                 1.0391                 1.0621
 Frc consts  --      5.7531                 5.7248                 5.8651
 IR Inten    --     19.4029                18.6740                25.4118

                     55                     56                     57
                      A                      A                      A
 Frequencies --   3071.2456              3079.8011              3088.1166
 Red. masses --      1.0950                 1.0977                 1.1001
 Frc consts  --      6.0857                 6.1343                 6.1810
 IR Inten    --     13.6505                12.5435                17.2921

                     58                     59                     60
                      A                      A                      A
 Frequencies --   3094.8009              3100.9397              3123.6492
 Red. masses --      1.1021                 1.1017                 1.1021
 Frc consts  --      6.2190                 6.2418                 6.3356
 IR Inten    --     29.8622                69.1375                47.4230

                     61                     62                     63
                      A                      A                      A
 Frequencies --   3125.4916              3132.0599              3137.9117
 Red. masses --      1.0999                 1.1013                 1.1017
 Frc consts  --      6.3303                 6.3650                 6.3915
 IR Inten    --     32.8708                36.1991                32.2934

 - Thermochemistry -
 -------------------
 Temperature   298.150 Kelvin.  Pressure   1.00000 Atm.
 Atom     1 has atomic number  6 and mass  12.00000

 Molecular mass:   100.12520 amu.
 Principal axes and moments of inertia in atomic units:
                           1         2         3
     Eigenvalues --   414.810581467.000721634.16653
           X            1.00000   0.00006   0.00258
           Y           -0.00009   0.99993   0.01186
           Z           -0.00258  -0.01186   0.99993
 This molecule is an asymmetric top.
 Rotational symmetry number  1.
 Rotational temperatures (Kelvin)      0.20880     0.05904     0.05300
 Rotational constants (GHZ):           4.35076     1.23023     1.10438
 Zero-point vibrational energy     576120.6 (Joules/Mol)
                                  137.69614 (Kcal/Mol)
 Warning -- explicit consideration of  11 degrees of freedom as
           vibrations may cause significant error
 Vibrational temperatures:     66.59   117.09   199.28   242.62   329.85
          (Kelvin)            363.80   418.28   439.23   513.43   636.18
                              751.61  1043.00  1104.85  1148.16  1217.09
                             1227.95  1306.48  1366.49  1391.98  1456.07
                             1505.98  1539.20  1573.60  1614.15  1674.16
                             1683.22  1772.89  1815.79  1865.73  1891.59
                             1909.63  1933.15  1981.96  1984.38  2000.74
                             2027.49  2037.15  2040.19  2130.45  2147.67
                             2149.88  2154.91  2160.54  2165.37  2172.14
                             2177.44  2185.99  4368.95  4379.21  4387.40
                             4390.65  4397.02  4399.77  4404.76  4418.84
                             4431.15  4443.11  4452.73  4461.56  4494.23
                             4496.89  4506.34  4514.76

 Zero-point correction=                           0.219433 (Hartree/Particle)
 Thermal correction to Energy=                    0.228709
 Thermal correction to Enthalpy=                  0.229653
 Thermal correction to Gibbs Free Energy=         0.185237
 Sum of electronic and zero-point Energies=           -276.120141
 Sum of electronic and thermal Energies=              -276.110865
 Sum of electronic and thermal Enthalpies=            -276.109921
 Sum of electronic and thermal Free Energies=         -276.154337

                     E (Thermal)             CV                S
                      KCal/Mol        Cal/Mol-Kelvin    Cal/Mol-Kelvin
 Total                  143.517             33.593             93.480
 Electronic               0.000              0.000              0.000
 Translational            0.889              2.981             39.722
 Rotational               0.889              2.981             28.388
 Vibrational            141.740             27.632             25.371
 Vibration     1          0.595              1.979              4.970
 Vibration     2          0.600              1.962              3.857
 Vibration     3          0.614              1.915              2.824
 Vibration     4          0.625              1.881              2.451
 Vibration     5          0.652              1.796              1.885
 Vibration     6          0.664              1.758              1.711
 Vibration     7          0.687              1.691              1.470
 Vibration     8          0.696              1.664              1.388
 Vibration     9          0.732              1.561              1.136
 Vibration    10          0.802              1.378              0.820
 Vibration    11          0.877              1.200              0.604

                           ! Non-Optimized Parameters !
 Normal termination of Gaussian 16 at Sun Sep 29 23:32:38 2019.
