 Gaussian 16, Revision A.03,
 Gaussian 16:  EM64L-G16RevA.03 25-Dec-2016

 ----------------------------------------------------------------------
 #p m062x/cc-pVTZ opt=(calcfc,maxcycles=900,Tight) freq IOP(7/33=1,2/16
 =3) scf=(maxcycle=900)
 ----------------------------------------------------------------------

 ------------------------------
 Gaussian input prepared by ASE
 ------------------------------
 Symbolic Z-matrix:
 Charge =  0 Multiplicity = 1

 SCF Done:  E(RM062X) =  -276.321285820     A.U. after   11 cycles
 SCF Done:  E(RM062X) =  -276.326500194     A.U. after   12 cycles
 SCF Done:  E(RM062X) =  -276.328769597     A.U. after   11 cycles
 SCF Done:  E(RM062X) =  -276.332191680     A.U. after   12 cycles
 SCF Done:  E(RM062X) =  -276.328752186     A.U. after   10 cycles
 SCF Done:  E(RM062X) =  -276.334003381     A.U. after   10 cycles
 SCF Done:  E(RM062X) =  -276.334153682     A.U. after    9 cycles
 SCF Done:  E(RM062X) =  -276.334405062     A.U. after    9 cycles
 SCF Done:  E(RM062X) =  -276.334527598     A.U. after    9 cycles
 SCF Done:  E(RM062X) =  -276.334560918     A.U. after    8 cycles
 SCF Done:  E(RM062X) =  -276.334578215     A.U. after    8 cycles
 SCF Done:  E(RM062X) =  -276.334581168     A.U. after    7 cycles
 SCF Done:  E(RM062X) =  -276.334581352     A.U. after    8 cycles
 SCF Done:  E(RM062X) =  -276.334583630     A.U. after    7 cycles
 SCF Done:  E(RM062X) =  -276.334583683     A.U. after    5 cycles
 SCF Done:  E(RM062X) =  -276.334583687     A.U. after    4 cycles
 SCF Done:  E(RM062X) =  -276.334583689     A.U. after    3 cycles
 Optimization completed.
    -- Stationary point found.
 Normal termination of Gaussian 16 at Sun Sep 29 21:40:57 2019.

 ----------------------------------------------------------------------
 #P Geom=AllCheck Guess=TCheck SCRF=Check Test GenChk RM062X/CC-pVTZ Fr
 eq
 ----------------------------------------------------------------------

 Structure from the checkpoint file:  "/scratch/harms.n/gauss_scrdir/Gau-44682.chk"
 ------------------------------
 Gaussian input prepared by ASE
 ------------------------------
 Charge =  0 Multiplicity = 1

                         Standard orientation:
 ---------------------------------------------------------------------
 Center     Atomic      Atomic             Coordinates (Angstroms)
 Number     Number       Type             X           Y           Z
 ---------------------------------------------------------------------
      1          6           0       -0.839219   -0.906175   -0.476163
      2          6           0        0.435735   -1.570788    0.056993
      3          6           0        1.740355   -0.799156   -0.158526
      4          6           0       -1.566790   -0.034994    0.545674
      5          6           0        1.840842    0.581285    0.502527
      6          6           0       -2.743104    0.713082   -0.067291
      7          6           0        1.299058    1.729303   -0.346025
      8          1           0       -0.874783    0.676509    0.999089
      9          1           0       -1.917269   -0.674714    1.359653
     10          1           0       -1.538793   -1.676067   -0.811275
     11          1           0       -0.600943   -0.314832   -1.365641
     12          1           0        0.554250   -2.547384   -0.416225
     13          1           0        0.311410   -1.767470    1.126826
     14          1           0        1.913749   -0.688155   -1.233811
     15          1           0        2.553161   -1.425415    0.214957
     16          1           0        1.338586    0.557462    1.473269
     17          1           0        2.890912    0.790453    0.715388
     18          1           0       -2.401972    1.395804   -0.847875
     19          1           0       -3.448563    0.017686   -0.525159
     20          1           0       -3.282797    1.298169    0.676614
     21          1           0        0.243329    1.608609   -0.584362
     22          1           0        1.842733    1.789147   -1.290187
     23          1           0        1.415731    2.684850    0.165611
 ---------------------------------------------------------------------

 SCF Done:  E(RM062X) =  -276.334583689     A.U. after    1 cycles

 The electronic state is 1-A.
 Alpha  occ. eigenvalues --  -10.52701 -10.52583 -10.52526 -10.52489 -10.52431
 Alpha  occ. eigenvalues --  -10.51982 -10.51933  -0.91155  -0.87318  -0.82686
 Alpha  occ. eigenvalues --   -0.76689  -0.70519  -0.66302  -0.64219  -0.55267
 Alpha  occ. eigenvalues --   -0.51653  -0.50988  -0.49554  -0.47759  -0.46707
 Alpha  occ. eigenvalues --   -0.45368  -0.42990  -0.41663  -0.40499  -0.39170
 Alpha  occ. eigenvalues --   -0.38855  -0.37740  -0.36048  -0.35844
 Alpha virt. eigenvalues --    0.06882   0.08022   0.08934   0.09019   0.12051
 Alpha virt. eigenvalues --    0.12374   0.12928   0.13844   0.14077   0.15084
 Alpha virt. eigenvalues --    0.15181   0.16824   0.17536   0.18726   0.19382

 Mulliken charges:
               1
     1  C   -0.289375
     2  C   -0.264916
     3  C   -0.252166
     4  C   -0.286570
     5  C   -0.272060
     6  C   -0.351399
     7  C   -0.381175
     8  H    0.150297
     9  H    0.138452
    10  H    0.141933
    11  H    0.146360
    12  H    0.133567
    13  H    0.134554
    14  H    0.131496
    15  H    0.132185
    16  H    0.139016
    17  H    0.134601
    18  H    0.115214
    19  H    0.112895
    20  H    0.115792
    21  H    0.125990
    22  H    0.120951
    23  H    0.124358
 Sum of Mulliken charges =  -0.00000

 Dipole moment (field-independent basis, Debye):
    X=              0.0913    Y=             -0.1020    Z=              0.0821  Tot=              0.1596
 Quadrupole moment (field-independent basis, Debye-Ang):
   XX=            -48.7628   YY=            -48.8866   ZZ=            -48.8930
   XY=              0.4097   XZ=             -0.2713   YZ=              0.2164

  Exact polarizability:  92.425  -1.494  85.741   0.356  -0.136  75.612
 Approx polarizability:  97.911   0.006  97.341  -0.010  -0.242  97.696

                      1                      2                      3
                      A                      A                      A
 Frequencies --     76.7997               112.8242               131.9298
 Red. masses --      2.2204                 1.5932                 2.2849
 Frc consts  --      0.0077                 0.0119                 0.0234
 IR Inten    --      0.0083                 0.0343                 0.0201

                      4                      5                      6
                      A                      A                      A
 Frequencies --    199.6268               228.9385               249.9944
 Red. masses --      2.2595                 1.1556                 1.6314
 Frc consts  --      0.0531                 0.0357                 0.0601
 IR Inten    --      0.0413                 0.0561                 0.0074

                      7                      8                      9
                      A                      A                      A
 Frequencies --    288.0058               293.3184               347.5578
 Red. masses --      1.7331                 1.8741                 1.8735
 Frc consts  --      0.0847                 0.0950                 0.1333
 IR Inten    --      0.1695                 0.1007                 0.0917

                     10                     11                     12
                      A                      A                      A
 Frequencies --    413.2995               483.4458               741.0562
 Red. masses --      2.4215                 1.7038                 1.2166
 Frc consts  --      0.2437                 0.2346                 0.3936
 IR Inten    --      0.1132                 0.0864                 2.9457

                     13                     14                     15
                      A                      A                      A
 Frequencies --    762.3259               793.0816               843.6144
 Red. masses --      1.3632                 1.5195                 1.4671
 Frc consts  --      0.4668                 0.5631                 0.6152
 IR Inten    --      6.1065                 0.0805                 1.3861

                     16                     17                     18
                      A                      A                      A
 Frequencies --    880.8935               883.0176               951.2327
 Red. masses --      1.6865                 1.5655                 1.3967
 Frc consts  --      0.7711                 0.7192                 0.7446
 IR Inten    --      0.2539                 0.6457                 5.1652

                     19                     20                     21
                      A                      A                      A
 Frequencies --    966.4347              1040.0841              1060.6587
 Red. masses --      1.9187                 1.8698                 1.5829
 Frc consts  --      1.0558                 1.1918                 1.0492
 IR Inten    --      0.1030                 0.6094                 0.5971

                     22                     23                     24
                      A                      A                      A
 Frequencies --   1080.6838              1081.9409              1137.8421
 Red. masses --      1.6463                 1.9725                 1.8009
 Frc consts  --      1.1328                 1.3604                 1.3738
 IR Inten    --      0.3283                 0.4782                 0.1339

                     25                     26                     27
                      A                      A                      A
 Frequencies --   1150.3896              1177.0378              1236.2831
 Red. masses --      1.9221                 2.1327                 1.3984
 Frc consts  --      1.4987                 1.7408                 1.2592
 IR Inten    --      0.9012                 0.4010                 0.6571

                     28                     29                     30
                      A                      A                      A
 Frequencies --   1270.0224              1294.1937              1310.4346
 Red. masses --      1.2944                 1.2189                 1.1789
 Frc consts  --      1.2301                 1.2028                 1.1928
 IR Inten    --      0.1615                 0.9966                 0.4857

                     31                     32                     33
                      A                      A                      A
 Frequencies --   1333.2103              1335.0788              1376.3207
 Red. masses --      1.1074                 1.2197                 1.3135
 Frc consts  --      1.1597                 1.2810                 1.4659
 IR Inten    --      0.3189                 0.6059                 1.1178

                     34                     35                     36
                      A                      A                      A
 Frequencies --   1389.4824              1394.0154              1402.2374
 Red. masses --      1.4685                 1.4841                 1.6063
 Frc consts  --      1.6705                 1.6992                 1.8609
 IR Inten    --      0.5168                 0.7205                 0.8497

                     37                     38                     39
                      A                      A                      A
 Frequencies --   1414.1485              1416.8969              1485.9203
 Red. masses --      1.2636                 1.2651                 1.0757
 Frc consts  --      1.4889                 1.4964                 1.3994
 IR Inten    --      5.3636                 3.9993                 2.5323

                     40                     41                     42
                      A                      A                      A
 Frequencies --   1492.1364              1493.9734              1497.8649
 Red. masses --      1.0823                 1.0556                 1.0744
 Frc consts  --      1.4198                 1.3882                 1.4202
 IR Inten    --      3.3357                 0.9372                 3.1149

                     43                     44                     45
                      A                      A                      A
 Frequencies --   1501.0617              1503.2938              1509.8983
 Red. masses --      1.0582                 1.0447                 1.0761
 Frc consts  --      1.4048                 1.3910                 1.4455
 IR Inten    --      3.7800                 5.8870                14.0901

                     46                     47                     48
                      A                      A                      A
 Frequencies --   1510.8495              1525.6543              3036.2089
 Red. masses --      1.0588                 1.0757                 1.0691
 Frc consts  --      1.4240                 1.4752                 5.8069
 IR Inten    --      5.5372                 1.1727                12.7743

                     49                     50                     51
                      A                      A                      A
 Frequencies --   3040.4241              3042.6857              3052.8343
 Red. masses --      1.0630                 1.0600                 1.0397
 Frc consts  --      5.7897                 5.7820                 5.7088
 IR Inten    --     14.9804                14.6220                14.3886

                     52                     53                     54
                      A                      A                      A
 Frequencies --   3053.6703              3058.9882              3063.9215
 Red. masses --      1.0621                 1.0690                 1.0397
 Frc consts  --      5.8353                 5.8934                 5.7506
 IR Inten    --      9.4365                38.3295                18.0642

                     55                     56                     57
                      A                      A                      A
 Frequencies --   3075.1216              3084.9699              3088.5113
 Red. masses --      1.0951                 1.0968                 1.1004
 Frc consts  --      6.1015                 6.1503                 6.1843
 IR Inten    --     14.6994                56.0445                45.4935

                     58                     59                     60
                      A                      A                      A
 Frequencies --   3089.9918              3101.8136              3122.9507
 Red. masses --      1.0956                 1.0975                 1.1022
 Frc consts  --      6.1633                 6.2215                 6.3332
 IR Inten    --     43.6584                 8.7931                58.8855

                     61                     62                     63
                      A                      A                      A
 Frequencies --   3126.1596              3132.2707              3149.2134
 Red. masses --      1.1016                 1.1010                 1.0986
 Frc consts  --      6.3428                 6.3644                 6.4196
 IR Inten    --     26.3475                33.2869                25.4776

 - Thermochemistry -
 -------------------
 Temperature   298.150 Kelvin.  Pressure   1.00000 Atm.
 Atom     1 has atomic number  6 and mass  12.00000

 Molecular mass:   100.12520 amu.
 Principal axes and moments of inertia in atomic units:
                           1         2         3
     Eigenvalues --   545.437921127.878331488.94315
           X            0.99999  -0.00376   0.00107
           Y            0.00377   0.99998  -0.00568
           Z           -0.00105   0.00568   0.99998
 This molecule is an asymmetric top.
 Rotational symmetry number  1.
 Warning -- assumption of classical behavior for rotation
           may cause significant error
 Rotational temperatures (Kelvin)      0.15880     0.07679     0.05817
 Rotational constants (GHZ):           3.30879     1.60012     1.21210
 Zero-point vibrational energy     576532.7 (Joules/Mol)
                                  137.79463 (Kcal/Mol)
 Warning -- explicit consideration of  11 degrees of freedom as
           vibrations may cause significant error
 Vibrational temperatures:    110.50   162.33   189.82   287.22   329.39
          (Kelvin)            359.69   414.38   422.02   500.06   594.65
                              695.57  1066.21  1096.82  1141.07  1213.77
                             1267.41  1270.47  1368.61  1390.48  1496.45
                             1526.05  1554.86  1556.67  1637.10  1655.15
                             1693.49  1778.74  1827.28  1862.06  1885.42
                             1918.19  1920.88  1980.22  1999.16  2005.68
                             2017.51  2034.64  2038.60  2137.91  2146.85
                             2149.49  2155.09  2159.69  2162.90  2172.41
                             2173.78  2195.08  4368.43  4374.49  4377.75
                             4392.35  4393.55  4401.20  4408.30  4424.41
                             4438.58  4443.68  4445.81  4462.82  4493.23
                             4497.85  4506.64  4531.02

 Zero-point correction=                           0.219590 (Hartree/Particle)
 Thermal correction to Energy=                    0.228782
 Thermal correction to Enthalpy=                  0.229726
 Thermal correction to Gibbs Free Energy=         0.186084
 Sum of electronic and zero-point Energies=           -276.114994
 Sum of electronic and thermal Energies=              -276.105801
 Sum of electronic and thermal Enthalpies=            -276.104857
 Sum of electronic and thermal Free Energies=         -276.148500

                     E (Thermal)             CV                S
                      KCal/Mol        Cal/Mol-Kelvin    Cal/Mol-Kelvin
 Total                  143.563             33.654             91.853
 Electronic               0.000              0.000              0.000
 Translational            0.889              2.981             39.722
 Rotational               0.889              2.981             28.306
 Vibrational            141.786             27.692             23.825
 Vibration     1          0.599              1.965              3.971
 Vibration     2          0.607              1.939              3.220
 Vibration     3          0.612              1.921              2.918
 Vibration     4          0.638              1.840              2.137
 Vibration     5          0.652              1.797              1.887
 Vibration     6          0.663              1.763              1.731
 Vibration     7          0.685              1.696              1.486
 Vibration     8          0.688              1.686              1.455
 Vibration     9          0.725              1.580              1.177
 Vibration    10          0.777              1.441              0.915
 Vibration    11          0.840              1.287              0.701

 Optimization completed.
    -- Stationary point found.
 Normal termination of Gaussian 16 at Mon Sep 30 00:33:44 2019.
