 Gaussian 16, Revision A.03,
 Gaussian 16:  EM64L-G16RevA.03 25-Dec-2016

 ----------------------------------------------------------------------
 #p m062x/cc-pVTZ opt=(calcfc,maxcycles=900,Tight) freq IOP(7/33=1,2/16
 =3) scf=(maxcycle=900)
 ----------------------------------------------------------------------

 ------------------------------
 Gaussian input prepared by ASE
 ------------------------------
 Symbolic Z-matrix:
 Charge =  0 Multiplicity = 1

 SCF Done:  E(RM062X) =  -276.313821133     A.U. after   11 cycles

  Exact polarizability:   0.000   0.000   0.000   0.000   0.000   0.000
 Approx polarizability: 101.352   0.290  98.338   0.782   0.285  98.504

 SCF Done:  E(RM062X) =  -276.312921665     A.U. after   11 cycles
 SCF Done:  E(RM062X) =  -276.330506634     A.U. after   10 cycles
 SCF Done:  E(RM062X) =  -276.330916647     A.U. after   10 cycles
 SCF Done:  E(RM062X) =  -276.332082354     A.U. after    9 cycles
 SCF Done:  E(RM062X) =  -276.330866267     A.U. after   10 cycles
 SCF Done:  E(RM062X) =  -276.330835049     A.U. after   10 cycles
 SCF Done:  E(RM062X) =  -276.329415918     A.U. after   10 cycles
 SCF Done:  E(RM062X) =  -276.332152843     A.U. after    7 cycles
 SCF Done:  E(RM062X) =  -276.323517579     A.U. after   10 cycles
 SCF Done:  E(RM062X) =  -276.336887446     A.U. after   10 cycles
 SCF Done:  E(RM062X) =  -276.337092287     A.U. after   10 cycles
 SCF Done:  E(RM062X) =  -276.337066695     A.U. after    9 cycles
 SCF Done:  E(RM062X) =  -276.337157867     A.U. after    9 cycles
 SCF Done:  E(RM062X) =  -276.337160410     A.U. after    8 cycles
 SCF Done:  E(RM062X) =  -276.337161400     A.U. after    7 cycles
 SCF Done:  E(RM062X) =  -276.337161361     A.U. after    5 cycles
 SCF Done:  E(RM062X) =  -276.337161459     A.U. after    5 cycles
 SCF Done:  E(RM062X) =  -276.337161460     A.U. after    4 cycles
 Optimization completed.
    -- Stationary point found.

 The electronic state is 1-A.
 Alpha  occ. eigenvalues --  -10.52625 -10.52613 -10.52494 -10.52481 -10.52413
 Alpha  occ. eigenvalues --  -10.51944 -10.51913  -0.91240  -0.87444  -0.82497
 Alpha  occ. eigenvalues --   -0.76449  -0.71054  -0.66619  -0.63220  -0.55217
 Alpha  occ. eigenvalues --   -0.52800  -0.51050  -0.49075  -0.47575  -0.46370
 Alpha  occ. eigenvalues --   -0.45353  -0.42746  -0.42448  -0.40092  -0.39117
 Alpha  occ. eigenvalues --   -0.39059  -0.37186  -0.36353  -0.36166
 Alpha virt. eigenvalues --    0.06734   0.07938   0.08665   0.09224   0.11533
 Alpha virt. eigenvalues --    0.12871   0.13432   0.13557   0.14154   0.15067
 Alpha virt. eigenvalues --    0.15600   0.16832   0.17862   0.17975   0.19601

 Mulliken charges:
               1
     1  C   -0.271845
     2  C   -0.289337
     3  C   -0.267367
     4  C   -0.276180
     5  C   -0.269547
     6  C   -0.379387
     7  C   -0.355007
     8  H    0.139173
     9  H    0.143451
    10  H    0.138839
    11  H    0.139796
    12  H    0.140214
    13  H    0.144705
    14  H    0.141348
    15  H    0.136705
    16  H    0.143480
    17  H    0.135564
    18  H    0.125441
    19  H    0.123829
    20  H    0.121085
    21  H    0.110052
    22  H    0.110650
    23  H    0.114339
 Sum of Mulliken charges =  -0.00000

 Dipole moment (field-independent basis, Debye):
    X=             -0.0584    Y=              0.0423    Z=              0.0143  Tot=              0.0735
 Quadrupole moment (field-independent basis, Debye-Ang):
   XX=            -49.0792   YY=            -48.8036   ZZ=            -48.8404
   XY=              0.0495   XZ=             -0.4554   YZ=             -0.2557

 Normal termination of Gaussian 16 at Mon Sep 30 10:07:27 2019.

 ----------------------------------------------------------------------
 #P Geom=AllCheck Guess=TCheck SCRF=Check Test GenChk RM062X/CC-pVTZ Fr
 eq
 ----------------------------------------------------------------------

 Structure from the checkpoint file:  "/scratch/harms.n/gauss_scrdir/Gau-39389.chk"
 ------------------------------
 Gaussian input prepared by ASE
 ------------------------------
 Charge =  0 Multiplicity = 1

                         Standard orientation:
 ---------------------------------------------------------------------
 Center     Atomic      Atomic             Coordinates (Angstroms)
 Number     Number       Type             X           Y           Z
 ---------------------------------------------------------------------
      1          6           0       -1.555646    0.976653    0.337975
      2          6           0       -0.358888    1.300837   -0.558974
      3          6           0        1.006999    0.956761    0.050228
      4          6           0       -1.717537   -0.493540    0.719625
      5          6           0        1.555589   -0.416195   -0.332732
      6          6           0       -1.971018   -1.403829   -0.476679
      7          6           0        2.924410   -0.679473    0.281705
      8          1           0       -2.553687   -0.580396    1.416407
      9          1           0       -0.834926   -0.831604    1.268036
     10          1           0       -2.470213    1.309531   -0.161182
     11          1           0       -1.469150    1.571203    1.251426
     12          1           0       -0.394950    2.369060   -0.779080
     13          1           0       -0.463359    0.794852   -1.522772
     14          1           0        0.947491    1.029792    1.141601
     15          1           0        1.741898    1.703993   -0.259619
     16          1           0        0.862027   -1.200850   -0.026800
     17          1           0        1.622774   -0.476000   -1.422490
     18          1           0       -1.131989   -1.399675   -1.172734
     19          1           0       -2.134302   -2.434519   -0.162889
     20          1           0       -2.855653   -1.076842   -1.026201
     21          1           0        2.871431   -0.651308    1.371203
     22          1           0        3.642928    0.079118   -0.032705
     23          1           0        3.316214   -1.653636   -0.009090
 ---------------------------------------------------------------------

 SCF Done:  E(RM062X) =  -276.337161460     A.U. after    1 cycles
