 Gaussian 16, Revision A.03,
 Gaussian 16:  EM64L-G16RevA.03 25-Dec-2016

 ----------------------------------------------------------------------
 #p m062x/cc-pVTZ opt=(calcfc,maxcycles=900,Tight) freq IOP(7/33=1,2/16
 =3) scf=(maxcycle=900)
 ----------------------------------------------------------------------

 ------------------------------
 Gaussian input prepared by ASE
 ------------------------------
 Symbolic Z-matrix:
 Charge =  0 Multiplicity = 1

 SCF Done:  E(RM062X) =  -276.313128086     A.U. after   11 cycles
 SCF Done:  E(RM062X) =  -276.331900365     A.U. after   12 cycles
 SCF Done:  E(RM062X) =  -276.312273794     A.U. after   10 cycles
 SCF Done:  E(RM062X) =  -276.332625904     A.U. after   10 cycles
 SCF Done:  E(RM062X) =  -276.333856384     A.U. after   10 cycles
 SCF Done:  E(RM062X) =  -276.330211365     A.U. after   10 cycles
 SCF Done:  E(RM062X) =  -276.335131755     A.U. after    9 cycles
 SCF Done:  E(RM062X) =  -276.335302327     A.U. after    8 cycles
 SCF Done:  E(RM062X) =  -276.335413165     A.U. after    9 cycles
 SCF Done:  E(RM062X) =  -276.335458000     A.U. after    8 cycles
 SCF Done:  E(RM062X) =  -276.335595870     A.U. after    8 cycles
 SCF Done:  E(RM062X) =  -276.335579340     A.U. after    9 cycles
 SCF Done:  E(RM062X) =  -276.335597355     A.U. after    9 cycles
 SCF Done:  E(RM062X) =  -276.335596399     A.U. after    7 cycles
 SCF Done:  E(RM062X) =  -276.335597314     A.U. after    7 cycles
 SCF Done:  E(RM062X) =  -276.335597378     A.U. after    5 cycles
 SCF Done:  E(RM062X) =  -276.335597367     A.U. after    4 cycles
 SCF Done:  E(RM062X) =  -276.335597404     A.U. after    4 cycles
 SCF Done:  E(RM062X) =  -276.335597365     A.U. after    5 cycles
 Optimization completed.
    -- Stationary point found.
 Normal termination of Gaussian 16 at Mon Sep 30 02:05:45 2019.

 ----------------------------------------------------------------------
 #P Geom=AllCheck Guess=TCheck SCRF=Check Test GenChk RM062X/CC-pVTZ Fr
 eq
 ----------------------------------------------------------------------

 Structure from the checkpoint file:  "/scratch/harms.n/gauss_scrdir/Gau-10700.chk"
 ------------------------------
 Gaussian input prepared by ASE
 ------------------------------
 Charge =  0 Multiplicity = 1

                         Standard orientation:
 ---------------------------------------------------------------------
 Center     Atomic      Atomic             Coordinates (Angstroms)
 Number     Number       Type             X           Y           Z
 ---------------------------------------------------------------------
      1          6           0        0.815865   -0.721925    0.797904
      2          6           0        0.045925    0.594316    0.961907
      3          6           0       -0.796460    1.045003   -0.238963
      4          6           0        1.751005   -0.773524   -0.411574
      5          6           0       -2.231378    0.518330   -0.259402
      6          6           0        2.715681    0.404528   -0.484656
      7          6           0       -2.350706   -1.001702   -0.279565
      8          1           0        1.167835   -0.824158   -1.333671
      9          1           0        2.318465   -1.705041   -0.366632
     10          1           0        0.126992   -1.564976    0.743012
     11          1           0        1.412702   -0.872849    1.701975
     12          1           0        0.769259    1.377553    1.196922
     13          1           0       -0.601380    0.517138    1.840548
     14          1           0       -0.298379    0.763010   -1.170441
     15          1           0       -0.841413    2.135902   -0.244355
     16          1           0       -2.763086    0.908217    0.612770
     17          1           0       -2.738018    0.929322   -1.135165
     18          1           0        2.187411    1.341362   -0.666071
     19          1           0        3.267655    0.512777    0.451240
     20          1           0        3.439912    0.273111   -1.287829
     21          1           0       -2.028917   -1.438539    0.665232
     22          1           0       -1.736579   -1.432234   -1.073336
     23          1           0       -3.382050   -1.310755   -0.448106
 ---------------------------------------------------------------------

 SCF Done:  E(RM062X) =  -276.335597365     A.U. after    1 cycles

 The electronic state is 1-A.
 Alpha  occ. eigenvalues --  -10.52654 -10.52578 -10.52453 -10.52402 -10.52353
 Alpha  occ. eigenvalues --  -10.51960 -10.51929  -0.91199  -0.87397  -0.81834
 Alpha  occ. eigenvalues --   -0.77103  -0.71585  -0.66405  -0.62277  -0.54482
 Alpha  occ. eigenvalues --   -0.53862  -0.51038  -0.49906  -0.46845  -0.46190
 Alpha  occ. eigenvalues --   -0.44511  -0.43306  -0.43019  -0.39971  -0.39552
 Alpha  occ. eigenvalues --   -0.38884  -0.36806  -0.36351  -0.35748
 Alpha virt. eigenvalues --    0.06477   0.08515   0.08792   0.08923   0.11694
 Alpha virt. eigenvalues --    0.12029   0.12529   0.13836   0.13948   0.15263
 Alpha virt. eigenvalues --    0.15944   0.17080   0.18104   0.18891   0.19323

 Mulliken charges:
               1
     1  C   -0.317899
     2  C   -0.333417
     3  C   -0.287148
     4  C   -0.245991
     5  C   -0.224762
     6  C   -0.375146
     7  C   -0.396677
     8  H    0.133737
     9  H    0.133715
    10  H    0.163527
    11  H    0.151111
    12  H    0.160947
    13  H    0.158906
    14  H    0.149710
    15  H    0.140717
    16  H    0.126473
    17  H    0.124567
    18  H    0.122253
    19  H    0.121821
    20  H    0.119506
    21  H    0.123952
    22  H    0.125891
    23  H    0.124204
 Sum of Mulliken charges =   0.00000

 Dipole moment (field-independent basis, Debye):
    X=             -0.0338    Y=              0.0083    Z=             -0.0045  Tot=              0.0351
 Quadrupole moment (field-independent basis, Debye-Ang):
   XX=            -48.7530   YY=            -49.1613   ZZ=            -48.5673
   XY=             -0.3881   XZ=              0.1063   YZ=              0.0422

  Exact polarizability:  94.371   0.411  81.058  -0.222  -0.152  76.731
 Approx polarizability:  98.328  -0.178  96.857  -0.126   0.102  97.038

                      1                      2                      3
                      A                      A                      A
 Frequencies --     32.6494                87.3819               123.5837
 Red. masses --      2.7846                 2.4620                 1.9118
 Frc consts  --      0.0017                 0.0111                 0.0172
 IR Inten    --      0.0044                 0.0214                 0.0185

                      4                      5                      6
                      A                      A                      A
 Frequencies --    195.4162               258.5255               273.7773
 Red. masses --      1.5736                 1.7700                 2.2210
 Frc consts  --      0.0354                 0.0697                 0.0981
 IR Inten    --      0.0172                 0.0045                 0.0802

                      7                      8                      9
                      A                      A                      A
 Frequencies --    287.1897               320.0846               367.9470
 Red. masses --      1.1288                 1.4317                 2.0000
 Frc consts  --      0.0549                 0.0864                 0.1595
 IR Inten    --      0.0708                 0.1092                 0.2277

                     10                     11                     12
                      A                      A                      A
 Frequencies --    457.0744               491.5685               719.4868
 Red. masses --      1.7008                 2.0021                 1.3076
 Frc consts  --      0.2094                 0.2850                 0.3988
 IR Inten    --      0.6021                 0.1647                 6.0490

                     13                     14                     15
                      A                      A                      A
 Frequencies --    773.2728               802.2011               814.7503
 Red. masses --      1.2069                 2.2152                 1.6333
 Frc consts  --      0.4252                 0.8399                 0.6388
 IR Inten    --      2.4414                 0.8248                 2.1041

                     16                     17                     18
                      A                      A                      A
 Frequencies --    866.9907               900.2346               944.1351
 Red. masses --      1.5364                 1.5253                 1.7045
 Frc consts  --      0.6804                 0.7283                 0.8952
 IR Inten    --      0.9631                 1.4665                 1.8962

                     19                     20                     21
                      A                      A                      A
 Frequencies --    958.1948              1010.8648              1063.1626
 Red. masses --      1.6087                 1.6445                 1.3676
 Frc consts  --      0.8702                 0.9901                 0.9108
 IR Inten    --      0.0779                 2.5583                 0.2391

                     22                     23                     24
                      A                      A                      A
 Frequencies --   1066.9203              1088.4097              1131.1710
 Red. masses --      1.4942                 1.8790                 1.9435
 Frc consts  --      1.0022                 1.3115                 1.4652
 IR Inten    --      1.3206                 0.1807                 0.5882

                     25                     26                     27
                      A                      A                      A
 Frequencies --   1156.3342              1163.8966              1238.3311
 Red. masses --      2.1026                 1.9269                 1.3523
 Frc consts  --      1.6564                 1.5379                 1.2218
 IR Inten    --      1.5371                 0.3546                 0.3456

                     28                     29                     30
                      A                      A                      A
 Frequencies --   1251.1723              1289.6295              1312.4998
 Red. masses --      1.3413                 1.2260                 1.1811
 Frc consts  --      1.2371                 1.2013                 1.1987
 IR Inten    --      0.1062                 0.9173                 0.5644

                     31                     32                     33
                      A                      A                      A
 Frequencies --   1328.6285              1363.4666              1377.8387
 Red. masses --      1.1463                 1.3191                 1.4807
 Frc consts  --      1.1922                 1.4449                 1.6562
 IR Inten    --      1.1665                 3.8338                 0.3332

                     34                     35                     36
                      A                      A                      A
 Frequencies --   1383.9653              1395.6436              1399.8695
 Red. masses --      1.4053                 1.3689                 1.4339
 Frc consts  --      1.5859                 1.5709                 1.6555
 IR Inten    --      1.5195                 0.5268                 0.8680

                     37                     38                     39
                      A                      A                      A
 Frequencies --   1416.0298              1417.2490              1482.4531
 Red. masses --      1.3140                 1.3243                 1.0657
 Frc consts  --      1.5523                 1.5672                 1.3800
 IR Inten    --      0.8436                 9.8970                 0.8256

                     40                     41                     42
                      A                      A                      A
 Frequencies --   1487.0891              1495.1867              1497.4401
 Red. masses --      1.0805                 1.0796                 1.0676
 Frc consts  --      1.4078                 1.4221                 1.4105
 IR Inten    --      0.8057                 6.1373                 4.4936

                     43                     44                     45
                      A                      A                      A
 Frequencies --   1501.3118              1503.4192              1513.1953
 Red. masses --      1.0486                 1.0611                 1.0556
 Frc consts  --      1.3925                 1.4131                 1.4240
 IR Inten    --      0.3663                13.7852                 6.3001

                     46                     47                     48
                      A                      A                      A
 Frequencies --   1518.3863              1519.0077              3043.3874
 Red. masses --      1.0617                 1.0842                 1.0669
 Frc consts  --      1.4421                 1.4740                 5.8224
 IR Inten    --     16.2153                 1.1280                13.7384

                     49                     50                     51
                      A                      A                      A
 Frequencies --   3047.9678              3053.1686              3054.3924
 Red. masses --      1.0622                 1.0605                 1.0511
 Frc consts  --      5.8140                 5.8244                 5.7778
 IR Inten    --     15.2611                31.0461                 7.5233

                     52                     53                     54
                      A                      A                      A
 Frequencies --   3055.7392              3056.8617              3063.4963
 Red. masses --      1.0580                 1.0400                 1.0602
 Frc consts  --      5.8205                 5.7258                 5.8624
 IR Inten    --     27.2197                27.2389                13.1971

                     55                     56                     57
                      A                      A                      A
 Frequencies --   3080.6823              3087.6870              3089.3380
 Red. masses --      1.0995                 1.0938                 1.1007
 Frc consts  --      6.1482                 6.1438                 6.1896
 IR Inten    --     23.9601                25.8793                28.3220

                     58                     59                     60
                      A                      A                      A
 Frequencies --   3096.1984              3115.2880              3122.9977
 Red. masses --      1.1003                 1.0954                 1.1017
 Frc consts  --      6.2146                 6.2637                 6.3306
 IR Inten    --     27.9287                56.1409                44.1762

                     61                     62                     63
                      A                      A                      A
 Frequencies --   3124.8419              3133.4793              3138.4805
 Red. masses --      1.1001                 1.1013                 1.1004
 Frc consts  --      6.3293                 6.3708                 6.3864
 IR Inten    --     40.5963                31.5835                26.7679

 - Thermochemistry -
 -------------------
 Temperature   298.150 Kelvin.  Pressure   1.00000 Atm.
 Atom     1 has atomic number  6 and mass  12.00000

 Molecular mass:   100.12520 amu.
 Principal axes and moments of inertia in atomic units:
                           1         2         3
     Eigenvalues --   412.345421366.268731467.68666
           X            0.99995   0.01006  -0.00174
           Y           -0.01006   0.99994  -0.00299
           Z            0.00171   0.00301   0.99999
 This molecule is an asymmetric top.
 Rotational symmetry number  1.
 Rotational temperatures (Kelvin)      0.21005     0.06339     0.05901
 Rotational constants (GHZ):           4.37677     1.32093     1.22965
 Zero-point vibrational energy     576666.1 (Joules/Mol)
                                  137.82650 (Kcal/Mol)
 Warning -- explicit consideration of  11 degrees of freedom as
           vibrations may cause significant error
 Vibrational temperatures:     46.98   125.72   177.81   281.16   371.96
          (Kelvin)            393.90   413.20   460.53   529.39   657.63
                              707.26  1035.18  1112.57  1154.19  1172.24
                             1247.41  1295.24  1358.40  1378.63  1454.41
                             1529.65  1535.06  1565.98  1627.50  1663.71
                             1674.59  1781.68  1800.16  1855.49  1888.39
                             1911.60  1961.72  1982.40  1991.22  2008.02
                             2014.10  2037.35  2039.11  2132.92  2139.59
                             2151.24  2154.48  2160.05  2163.08  2177.15
                             2184.62  2185.51  4378.76  4385.35  4392.83
                             4394.59  4396.53  4398.14  4407.69  4432.41
                             4442.49  4444.87  4454.74  4482.20  4493.30
                             4495.95  4508.38  4515.57

 Zero-point correction=                           0.219641 (Hartree/Particle)
 Thermal correction to Energy=                    0.228839
 Thermal correction to Enthalpy=                  0.229783
 Thermal correction to Gibbs Free Energy=         0.185412
 Sum of electronic and zero-point Energies=           -276.115957
 Sum of electronic and thermal Energies=              -276.106759
 Sum of electronic and thermal Enthalpies=            -276.105815
 Sum of electronic and thermal Free Energies=         -276.150186

                     E (Thermal)             CV                S
                      KCal/Mol        Cal/Mol-Kelvin    Cal/Mol-Kelvin
 Total                  143.598             33.523             93.387
 Electronic               0.000              0.000              0.000
 Translational            0.889              2.981             39.722
 Rotational               0.889              2.981             28.205
 Vibrational            141.821             27.561             25.460
 Vibration     1          0.594              1.983              5.662
 Vibration     2          0.601              1.958              3.718
 Vibration     3          0.610              1.929              3.044
 Vibration     4          0.636              1.846              2.176
 Vibration     5          0.667              1.748              1.672
 Vibration     6          0.676              1.722              1.572
 Vibration     7          0.684              1.698              1.490
 Vibration     8          0.706              1.635              1.310
 Vibration     9          0.741              1.538              1.088
 Vibration    10          0.815              1.345              0.775
 Vibration    11          0.847              1.269              0.680

                           ! Non-Optimized Parameters !
 Normal termination of Gaussian 16 at Mon Sep 30 04:57:41 2019.
