 Gaussian 16, Revision A.03,
 Gaussian 16:  EM64L-G16RevA.03 25-Dec-2016

 ----------------------------------------------------------------------
 #p m062x/cc-pVTZ opt=(calcfc,maxcycles=900,Tight) freq IOP(7/33=1,2/16
 =3) scf=(maxcycle=900)
 ----------------------------------------------------------------------

 ------------------------------
 Gaussian input prepared by ASE
 ------------------------------
 Symbolic Z-matrix:
 Charge =  0 Multiplicity = 1

 SCF Done:  E(RM062X) =  -276.330346213     A.U. after   11 cycles
 SCF Done:  E(RM062X) =  -276.339387970     A.U. after   10 cycles
 SCF Done:  E(RM062X) =  -276.339422545     A.U. after   10 cycles
 SCF Done:  E(RM062X) =  -276.339947380     A.U. after   10 cycles
 SCF Done:  E(RM062X) =  -276.340023652     A.U. after    8 cycles
 SCF Done:  E(RM062X) =  -276.340028761     A.U. after    7 cycles
 SCF Done:  E(RM062X) =  -276.340030690     A.U. after    6 cycles
 SCF Done:  E(RM062X) =  -276.340031289     A.U. after    6 cycles
 SCF Done:  E(RM062X) =  -276.340031299     A.U. after    5 cycles
 SCF Done:  E(RM062X) =  -276.340031296     A.U. after    3 cycles
 SCF Done:  E(RM062X) =  -276.340031300     A.U. after    3 cycles
 Optimization completed.
    -- Stationary point found.
 Normal termination of Gaussian 16 at Sun Sep 29 18:14:24 2019.

 ----------------------------------------------------------------------
 #P Geom=AllCheck Guess=TCheck SCRF=Check Test GenChk RM062X/CC-pVTZ Fr
 eq
 ----------------------------------------------------------------------

 Structure from the checkpoint file:  "/scratch/harms.n/gauss_scrdir/Gau-2013.chk"
 ------------------------------
 Gaussian input prepared by ASE
 ------------------------------
 Charge =  0 Multiplicity = 1

                         Standard orientation:
 ---------------------------------------------------------------------
 Center     Atomic      Atomic             Coordinates (Angstroms)
 Number     Number       Type             X           Y           Z
 ---------------------------------------------------------------------
      1          6           0       -1.166786    0.824262    0.732082
      2          6           0       -0.309708    1.216351   -0.473810
      3          6           0        0.852645    0.266924   -0.758699
      4          6           0       -1.717459   -0.600387    0.677890
      5          6           0        1.822123    0.108212    0.407692
      6          6           0       -2.564236   -0.871344   -0.560771
      7          6           0        3.027838   -0.748768    0.043484
      8          1           0       -2.317861   -0.777291    1.572198
      9          1           0       -0.893333   -1.317233    0.720221
     10          1           0       -2.004105    1.523333    0.806026
     11          1           0       -0.585508    0.948116    1.648461
     12          1           0        0.087182    2.221185   -0.307269
     13          1           0       -0.941413    1.283583   -1.362309
     14          1           0        1.404575    0.634843   -1.627781
     15          1           0        0.470262   -0.718940   -1.041013
     16          1           0        2.154680    1.097726    0.734376
     17          1           0        1.304809   -0.337968    1.260163
     18          1           0       -3.368935   -0.138611   -0.646766
     19          1           0       -1.968578   -0.815166   -1.472444
     20          1           0       -3.015888   -1.862068   -0.522809
     21          1           0        3.584713   -0.304040   -0.782536
     22          1           0        2.712494   -1.745089   -0.270591
     23          1           0        3.710400   -0.863877    0.884866
 ---------------------------------------------------------------------

 SCF Done:  E(RM062X) =  -276.340031300     A.U. after    1 cycles

 The electronic state is 1-A.
 Alpha  occ. eigenvalues --  -10.52631 -10.52630 -10.52444 -10.52415 -10.52383
 Alpha  occ. eigenvalues --  -10.51966 -10.51960  -0.91436  -0.87431  -0.82255
 Alpha  occ. eigenvalues --   -0.76540  -0.71276  -0.66997  -0.62294  -0.55295
 Alpha  occ. eigenvalues --   -0.53157  -0.51120  -0.49271  -0.48004  -0.45925
 Alpha  occ. eigenvalues --   -0.44997  -0.42759  -0.42301  -0.40170  -0.39726
 Alpha  occ. eigenvalues --   -0.38920  -0.36866  -0.36587  -0.36181
 Alpha virt. eigenvalues --    0.06457   0.08060   0.08723   0.09211   0.11549
 Alpha virt. eigenvalues --    0.12284   0.12592   0.14667   0.15125   0.15378
 Alpha virt. eigenvalues --    0.15686   0.17194   0.17294   0.17877   0.19278

 Mulliken charges:
               1
     1  C   -0.307012
     2  C   -0.317505
     3  C   -0.281480
     4  C   -0.257658
     5  C   -0.246686
     6  C   -0.370204
     7  C   -0.354044
     8  H    0.135473
     9  H    0.137380
    10  H    0.149623
    11  H    0.154656
    12  H    0.149464
    13  H    0.156110
    14  H    0.143790
    15  H    0.146808
    16  H    0.133060
    17  H    0.133701
    18  H    0.120684
    19  H    0.120015
    20  H    0.119615
    21  H    0.110060
    22  H    0.110120
    23  H    0.114029
 Sum of Mulliken charges =   0.00000

 Dipole moment (field-independent basis, Debye):
    X=             -0.0215    Y=              0.0444    Z=              0.0804  Tot=              0.0943
 Quadrupole moment (field-independent basis, Debye-Ang):
   XX=            -49.0407   YY=            -48.7348   ZZ=            -48.9881
   XY=              0.3623   XZ=             -0.1392   YZ=             -0.2210

  Exact polarizability:  95.363  -0.463  80.080   0.387   0.303  78.103
 Approx polarizability:  98.185  -0.031  97.232   0.091   0.188  96.760

                      1                      2                      3
                      A                      A                      A
 Frequencies --     64.0239               101.6100               112.6817
 Red. masses --      2.8333                 1.7353                 2.0789
 Frc consts  --      0.0068                 0.0106                 0.0156
 IR Inten    --      0.0054                 0.0090                 0.0021

                      4                      5                      6
                      A                      A                      A
 Frequencies --    187.9404               216.9114               254.0735
 Red. masses --      2.1858                 1.3420                 1.1600
 Frc consts  --      0.0455                 0.0372                 0.0441
 IR Inten    --      0.0343                 0.0148                 0.0027

                      7                      8                      9
                      A                      A                      A
 Frequencies --    286.1219               314.3242               362.7694
 Red. masses --      2.0621                 1.6392                 2.1458
 Frc consts  --      0.0995                 0.0954                 0.1664
 IR Inten    --      0.0571                 0.0502                 0.1231

                     10                     11                     12
                      A                      A                      A
 Frequencies --    433.7964               533.8623               717.3295
 Red. masses --      2.0074                 2.3358                 1.1810
 Frc consts  --      0.2226                 0.3922                 0.3581
 IR Inten    --      0.2343                 0.1576                 8.8833

                     13                     14                     15
                      A                      A                      A
 Frequencies --    750.9518               796.2125               841.6950
 Red. masses --      1.1622                 1.4756                 1.9511
 Frc consts  --      0.3862                 0.5512                 0.8144
 IR Inten    --      1.1778                 1.0188                 0.4401

                     16                     17                     18
                      A                      A                      A
 Frequencies --    879.3016               893.1743               950.5175
 Red. masses --      1.5933                 1.4654                 1.6215
 Frc consts  --      0.7258                 0.6888                 0.8632
 IR Inten    --      0.6377                 0.9708                 1.4727

                     19                     20                     21
                      A                      A                      A
 Frequencies --    962.9427              1029.8291              1055.0343
 Red. masses --      1.3833                 1.7726                 1.5153
 Frc consts  --      0.7557                 1.1076                 0.9938
 IR Inten    --      1.7386                 1.6187                 0.3528

                     22                     23                     24
                      A                      A                      A
 Frequencies --   1062.5553              1073.9648              1125.5024
 Red. masses --      1.3348                 2.1890                 1.9744
 Frc consts  --      0.8879                 1.4876                 1.4736
 IR Inten    --      0.6008                 0.0426                 0.1939

                     25                     26                     27
                      A                      A                      A
 Frequencies --   1163.8517              1169.9947              1237.1948
 Red. masses --      2.2430                 1.8900                 1.4087
 Frc consts  --      1.7901                 1.5243                 1.2704
 IR Inten    --      0.4458                 0.3190                 0.3618

                     28                     29                     30
                      A                      A                      A
 Frequencies --   1254.3740              1293.8430              1317.5526
 Red. masses --      1.4039                 1.2399                 1.2695
 Frc consts  --      1.3015                 1.2229                 1.2984
 IR Inten    --      0.1117                 1.7587                 0.3599

                     31                     32                     33
                      A                      A                      A
 Frequencies --   1325.3035              1338.8425              1368.2076
 Red. masses --      1.1411                 1.1462                 1.3757
 Frc consts  --      1.1809                 1.2105                 1.5173
 IR Inten    --      1.2634                 1.3553                 2.8898

                     34                     35                     36
                      A                      A                      A
 Frequencies --   1385.8466              1398.6801              1409.2805
 Red. masses --      1.5568                 1.4220                 1.6016
 Frc consts  --      1.7616                 1.6390                 1.8741
 IR Inten    --      0.4389                 1.6099                 0.1848

                     37                     38                     39
                      A                      A                      A
 Frequencies --   1413.0755              1417.4651              1480.6080
 Red. masses --      1.2518                 1.3132                 1.0689
 Frc consts  --      1.4727                 1.5546                 1.3806
 IR Inten    --      2.6530                 6.7363                 0.7202

                     40                     41                     42
                      A                      A                      A
 Frequencies --   1492.0206              1495.0649              1501.5915
 Red. masses --      1.0752                 1.0593                 1.0739
 Frc consts  --      1.4102                 1.3951                 1.4267
 IR Inten    --      2.6506                 2.5199                 7.1068

                     43                     44                     45
                      A                      A                      A
 Frequencies --   1502.8737              1503.9191              1508.0090
 Red. masses --      1.0461                 1.0555                 1.0637
 Frc consts  --      1.3921                 1.4065                 1.4252
 IR Inten    --      8.4979                 4.5169                11.1596

                     46                     47                     48
                      A                      A                      A
 Frequencies --   1514.2595              1517.7348              3039.8842
 Red. masses --      1.0790                 1.0811                 1.0612
 Frc consts  --      1.4578                 1.4672                 5.7777
 IR Inten    --      2.5690                 3.1058                 5.7058

                     49                     50                     51
                      A                      A                      A
 Frequencies --   3047.4995              3050.9037              3053.9456
 Red. masses --      1.0641                 1.0599                 1.0587
 Frc consts  --      5.8228                 5.8127                 5.8175
 IR Inten    --     11.7702                18.4661                37.7410

                     52                     53                     54
                      A                      A                      A
 Frequencies --   3056.8525              3057.7353              3059.5558
 Red. masses --      1.0558                 1.0413                 1.0478
 Frc consts  --      5.8129                 5.7361                 5.7790
 IR Inten    --     23.7454                22.8198                23.7096

                     55                     56                     57
                      A                      A                      A
 Frequencies --   3071.3632              3080.3031              3089.3892
 Red. masses --      1.0931                 1.0997                 1.0988
 Frc consts  --      6.0752                 6.1479                 6.1789
 IR Inten    --     15.7215                 5.3672                33.7176

                     58                     59                     60
                      A                      A                      A
 Frequencies --   3094.1171              3098.9736              3124.6801
 Red. masses --      1.1035                 1.1012                 1.1026
 Frc consts  --      6.2244                 6.2309                 6.3427
 IR Inten    --     35.3880                62.5844                45.4409

                     61                     62                     63
                      A                      A                      A
 Frequencies --   3125.3332              3132.8380              3134.1234
 Red. masses --      1.1016                 1.1016                 1.1016
 Frc consts  --      6.3395                 6.3703                 6.3752
 IR Inten    --     39.5706                28.8372                32.9366

 - Thermochemistry -
 -------------------
 Temperature   298.150 Kelvin.  Pressure   1.00000 Atm.
 Atom     1 has atomic number  6 and mass  12.00000

 Molecular mass:   100.12520 amu.
 Principal axes and moments of inertia in atomic units:
                           1         2         3
     Eigenvalues --   412.870111482.723261567.31856
           X            0.99999  -0.00178   0.00376
           Y            0.00170   0.99978   0.02078
           Z           -0.00379  -0.02078   0.99978
 This molecule is an asymmetric top.
 Rotational symmetry number  1.
 Rotational temperatures (Kelvin)      0.20978     0.05842     0.05526
 Rotational constants (GHZ):           4.37121     1.21718     1.15148
 Zero-point vibrational energy     576206.6 (Joules/Mol)
                                  137.71668 (Kcal/Mol)
 Warning -- explicit consideration of  11 degrees of freedom as
           vibrations may cause significant error
 Vibrational temperatures:     92.12   146.19   162.12   270.40   312.09
          (Kelvin)            365.56   411.67   452.24   521.94   624.14
                              768.11  1032.08  1080.45  1145.57  1211.01
                             1265.12  1285.08  1367.58  1385.46  1481.69
                             1517.96  1528.78  1545.20  1619.35  1674.52
                             1683.36  1780.05  1804.76  1861.55  1895.66
                             1906.82  1926.30  1968.55  1993.92  2012.39
                             2027.64  2033.10  2039.42  2130.26  2146.68
                             2151.06  2160.46  2162.30  2163.80  2169.69
                             2178.68  2183.68  4373.72  4384.67  4389.57
                             4393.95  4398.13  4399.40  4402.02  4419.01
                             4431.87  4444.94  4451.74  4458.73  4495.72
                             4496.66  4507.46  4509.30

 Zero-point correction=                           0.219465 (Hartree/Particle)
 Thermal correction to Energy=                    0.228693
 Thermal correction to Enthalpy=                  0.229637
 Thermal correction to Gibbs Free Energy=         0.185625
 Sum of electronic and zero-point Energies=           -276.120566
 Sum of electronic and thermal Energies=              -276.111339
 Sum of electronic and thermal Enthalpies=            -276.110394
 Sum of electronic and thermal Free Energies=         -276.154406

                     E (Thermal)             CV                S
                      KCal/Mol        Cal/Mol-Kelvin    Cal/Mol-Kelvin
 Total                  143.507             33.598             92.631
 Electronic               0.000              0.000              0.000
 Translational            0.889              2.981             39.722
 Rotational               0.889              2.981             28.352
 Vibrational            141.729             27.637             24.557
 Vibration     1          0.597              1.971              4.329
 Vibration     2          0.604              1.948              3.423
 Vibration     3          0.607              1.939              3.222
 Vibration     4          0.633              1.856              2.248
 Vibration     5          0.646              1.815              1.985
 Vibration     6          0.665              1.756              1.702
 Vibration     7          0.684              1.699              1.497
 Vibration     8          0.702              1.646              1.339
 Vibration     9          0.737              1.549              1.110
 Vibration    10          0.795              1.397              0.846
 Vibration    11          0.889              1.175              0.579

                           ! Non-Optimized Parameters !
 Normal termination of Gaussian 16 at Sun Sep 29 21:01:42 2019.
