 Gaussian 16, Revision A.03,
 Gaussian 16:  EM64L-G16RevA.03 25-Dec-2016

 ----------------------------------------------------------------------
 #p m062x/cc-pVTZ opt=(calcfc,maxcycles=900,Tight) freq IOP(7/33=1,2/16
 =3) scf=(maxcycle=900)
 ----------------------------------------------------------------------

 ------------------------------
 Gaussian input prepared by ASE
 ------------------------------
 Symbolic Z-matrix:
 Charge =  0 Multiplicity = 1

 SCF Done:  E(RM062X) =  -276.312828878     A.U. after   11 cycles
 SCF Done:  E(RM062X) =  -276.314083800     A.U. after   11 cycles
 SCF Done:  E(RM062X) =  -276.328226592     A.U. after   11 cycles
 SCF Done:  E(RM062X) =  -276.328789962     A.U. after   10 cycles
 SCF Done:  E(RM062X) =  -276.330340646     A.U. after   10 cycles
 SCF Done:  E(RM062X) =  -276.329840922     A.U. after   10 cycles
 SCF Done:  E(RM062X) =  -276.330409729     A.U. after   10 cycles
 SCF Done:  E(RM062X) =  -276.329336714     A.U. after   10 cycles
 SCF Done:  E(RM062X) =  -276.330920350     A.U. after    9 cycles
 SCF Done:  E(RM062X) =  -276.331148202     A.U. after    9 cycles
 SCF Done:  E(RM062X) =  -276.331807248     A.U. after    8 cycles
 SCF Done:  E(RM062X) =  -276.331811862     A.U. after    8 cycles
 SCF Done:  E(RM062X) =  -276.331814435     A.U. after    8 cycles
 SCF Done:  E(RM062X) =  -276.331814975     A.U. after    6 cycles
 SCF Done:  E(RM062X) =  -276.331814985     A.U. after    5 cycles
 SCF Done:  E(RM062X) =  -276.331814990     A.U. after    4 cycles
 SCF Done:  E(RM062X) =  -276.331814990     A.U. after    3 cycles
 SCF Done:  E(RM062X) =  -276.331814990     A.U. after    3 cycles
 SCF Done:  E(RM062X) =  -276.331814990     A.U. after    3 cycles
 Optimization completed.
    -- Stationary point found.
 Normal termination of Gaussian 16 at Mon Sep 30 04:44:46 2019.

 ----------------------------------------------------------------------
 #P Geom=AllCheck Guess=TCheck SCRF=Check Test GenChk RM062X/CC-pVTZ Fr
 eq
 ----------------------------------------------------------------------

 Structure from the checkpoint file:  "/scratch/harms.n/gauss_scrdir/Gau-33938.chk"
 ------------------------------
 Gaussian input prepared by ASE
 ------------------------------
 Charge =  0 Multiplicity = 1

                         Standard orientation:
 ---------------------------------------------------------------------
 Center     Atomic      Atomic             Coordinates (Angstroms)
 Number     Number       Type             X           Y           Z
 ---------------------------------------------------------------------
      1          6           0        1.042349   -0.777312   -0.800933
      2          6           0        0.000001   -1.561864    0.000001
      3          6           0       -1.042350   -0.777312    0.800933
      4          6           0        2.079377   -0.020884    0.041459
      5          6           0       -2.079376   -0.020885   -0.041462
      6          6           0        1.713388    1.416751    0.398437
      7          6           0       -1.713388    1.416752   -0.398436
      8          1           0        3.024555    0.000324   -0.504165
      9          1           0        2.273565   -0.588598    0.955932
     10          1           0        0.555190   -0.090435   -1.497466
     11          1           0        1.571476   -1.501676   -1.423521
     12          1           0        0.539883   -2.220534    0.686411
     13          1           0       -0.539881   -2.220538   -0.686406
     14          1           0       -0.555193   -0.090435    1.497468
     15          1           0       -1.571478   -1.501677    1.423519
     16          1           0       -2.273561   -0.588597   -0.955936
     17          1           0       -3.024556    0.000322    0.504160
     18          1           0        1.544647    2.005999   -0.504511
     19          1           0        0.808788    1.476232    1.000381
     20          1           0        2.517828    1.892950    0.959280
     21          1           0       -2.517829    1.892953   -0.959277
     22          1           0       -0.808788    1.476235   -1.000380
     23          1           0       -1.544646    2.005997    0.504514
 ---------------------------------------------------------------------

 SCF Done:  E(RM062X) =  -276.331814990     A.U. after    1 cycles

 The electronic state is 1-A.
 Alpha  occ. eigenvalues --  -10.52663 -10.52663 -10.52536 -10.52467 -10.52456
 Alpha  occ. eigenvalues --  -10.51853 -10.51852  -0.90999  -0.87166  -0.82512
 Alpha  occ. eigenvalues --   -0.76941  -0.70938  -0.66402  -0.63362  -0.54046
 Alpha  occ. eigenvalues --   -0.53569  -0.50207  -0.49133  -0.48252  -0.47249
 Alpha  occ. eigenvalues --   -0.43787  -0.43529  -0.42475  -0.40178  -0.39786
 Alpha  occ. eigenvalues --   -0.38825  -0.36581  -0.36347  -0.35552
 Alpha virt. eigenvalues --    0.06794   0.08443   0.08604   0.09119   0.11938
 Alpha virt. eigenvalues --    0.12333   0.13015   0.13158   0.13380   0.14852
 Alpha virt. eigenvalues --    0.16619   0.16754   0.17696   0.18055   0.18797

 Mulliken charges:
               1
     1  C   -0.307359
     2  C   -0.275050
     3  C   -0.307357
     4  C   -0.230847
     5  C   -0.230849
     6  C   -0.408328
     7  C   -0.408328
     8  H    0.128160
     9  H    0.130097
    10  H    0.158417
    11  H    0.142080
    12  H    0.139812
    13  H    0.139812
    14  H    0.158417
    15  H    0.142080
    16  H    0.130097
    17  H    0.128161
    18  H    0.128343
    19  H    0.130687
    20  H    0.126461
    21  H    0.126461
    22  H    0.130687
    23  H    0.128344
 Sum of Mulliken charges =  -0.00000

 Dipole moment (field-independent basis, Debye):
    X=              0.0000    Y=             -0.1281    Z=              0.0000  Tot=              0.1281
 Quadrupole moment (field-independent basis, Debye-Ang):
   XX=            -48.3852   YY=            -49.3324   ZZ=            -48.6210
   XY=             -0.0000   XZ=             -0.1503   YZ=             -0.0000

  Exact polarizability:  90.419   0.000  86.013   0.430  -0.000  75.746
 Approx polarizability:  98.049   0.000  97.510   0.586  -0.000  97.011

                      1                      2                      3
                      A                      A                      A
 Frequencies --     59.0214                88.1738               129.9317
 Red. masses --      1.8064                 1.9053                 3.1602
 Frc consts  --      0.0037                 0.0087                 0.0314
 IR Inten    --      0.0144                 0.0006                 0.0072

                      4                      5                      6
                      A                      A                      A
 Frequencies --    200.6980               218.0923               268.6173
 Red. masses --      2.9056                 2.1063                 1.1899
 Frc consts  --      0.0690                 0.0590                 0.0506
 IR Inten    --      0.0315                 0.0704                 0.0693

                      7                      8                      9
                      A                      A                      A
 Frequencies --    274.2056               357.4023               367.6971
 Red. masses --      1.1102                 1.6388                 2.4336
 Frc consts  --      0.0492                 0.1233                 0.1939
 IR Inten    --      0.7747                 0.3540                 0.0115

                     10                     11                     12
                      A                      A                      A
 Frequencies --    415.4153               482.1731               729.2718
 Red. masses --      1.6315                 1.6378                 1.6856
 Frc consts  --      0.1659                 0.2243                 0.5282
 IR Inten    --      0.0880                 0.3603                 0.0119

                     13                     14                     15
                      A                      A                      A
 Frequencies --    760.2173               792.6413               820.7742
 Red. masses --      1.1697                 1.4843                 1.6238
 Frc consts  --      0.3983                 0.5494                 0.6445
 IR Inten    --      6.0805                 0.7980                 1.5037

                     16                     17                     18
                      A                      A                      A
 Frequencies --    838.6502               909.7611               952.1427
 Red. masses --      2.0611                 1.5516                 1.2814
 Frc consts  --      0.8541                 0.7566                 0.6844
 IR Inten    --      0.6519                 1.6038                 3.6552

                     19                     20                     21
                      A                      A                      A
 Frequencies --    965.3089              1034.5810              1062.4850
 Red. masses --      2.2819                 1.8007                 1.2438
 Frc consts  --      1.2528                 1.1356                 0.8273
 IR Inten    --      0.4038                 2.0209                 0.0413

                     22                     23                     24
                      A                      A                      A
 Frequencies --   1064.2596              1097.1185              1137.6763
 Red. masses --      1.8620                 1.8450                 2.0446
 Frc consts  --      1.2426                 1.3085                 1.5592
 IR Inten    --      1.8989                 0.0964                 1.3535

                     25                     26                     27
                      A                      A                      A
 Frequencies --   1141.2982              1179.4299              1236.6567
 Red. masses --      1.8345                 2.0514                 1.3701
 Frc consts  --      1.4079                 1.6813                 1.2345
 IR Inten    --      0.7520                 0.0517                 0.1642

                     28                     29                     30
                      A                      A                      A
 Frequencies --   1237.2701              1307.0242              1319.5729
 Red. masses --      1.2364                 1.1961                 1.1147
 Frc consts  --      1.1152                 1.2039                 1.1436
 IR Inten    --      2.2607                 0.5099                 0.2008

                     31                     32                     33
                      A                      A                      A
 Frequencies --   1330.4594              1365.4764              1379.5628
 Red. masses --      1.1501                 1.3192                 1.3162
 Frc consts  --      1.1995                 1.4492                 1.4759
 IR Inten    --      2.1006                 2.5320                 0.7659

                     34                     35                     36
                      A                      A                      A
 Frequencies --   1386.1662              1395.1020              1404.8697
 Red. masses --      1.5721                 1.4900                 1.4649
 Frc consts  --      1.7797                 1.7086                 1.7035
 IR Inten    --      0.1162                 0.0196                 1.6327

                     37                     38                     39
                      A                      A                      A
 Frequencies --   1415.0952              1417.1101              1485.3258
 Red. masses --      1.2634                 1.2677                 1.0894
 Frc consts  --      1.4906                 1.4999                 1.4161
 IR Inten    --      0.1982                 7.3598                 2.0651

                     40                     41                     42
                      A                      A                      A
 Frequencies --   1485.4379              1491.0625              1497.8524
 Red. masses --      1.0536                 1.0609                 1.0744
 Frc consts  --      1.3697                 1.3897                 1.4202
 IR Inten    --      0.8498                 0.3263                 1.4231

                     43                     44                     45
                      A                      A                      A
 Frequencies --   1499.4878              1504.3739              1507.3257
 Red. masses --      1.0754                 1.0858                 1.0593
 Frc consts  --      1.4247                 1.4479                 1.4181
 IR Inten    --      4.5834                20.2834                 0.4948

                     46                     47                     48
                      A                      A                      A
 Frequencies --   1515.9407              1521.9112              3036.9547
 Red. masses --      1.0518                 1.0570                 1.0616
 Frc consts  --      1.4241                 1.4424                 5.7688
 IR Inten    --     24.0463                 0.2848                20.7242

                     49                     50                     51
                      A                      A                      A
 Frequencies --   3047.2969              3047.4591              3052.9453
 Red. masses --      1.0634                 1.0638                 1.0668
 Frc consts  --      5.8182                 5.8206                 5.8584
 IR Inten    --     32.1182                 4.6978                14.5178

                     52                     53                     54
                      A                      A                      A
 Frequencies --   3057.7952              3063.7764              3065.1653
 Red. masses --      1.0617                 1.0402                 1.0440
 Frc consts  --      5.8488                 5.7527                 5.7789
 IR Inten    --     15.3063                 3.3454                24.6510

                     55                     56                     57
                      A                      A                      A
 Frequencies --   3072.9334              3087.4914              3087.8380
 Red. masses --      1.0983                 1.0965                 1.0944
 Frc consts  --      6.1104                 6.1582                 6.1480
 IR Inten    --     22.1498                57.5929                 3.7327

                     58                     59                     60
                      A                      A                      A
 Frequencies --   3093.8931              3093.9220              3125.0147
 Red. masses --      1.1015                 1.1003                 1.1012
 Frc consts  --      6.2124                 6.2054                 6.3360
 IR Inten    --     50.9700                68.9690                 0.0338

                     61                     62                     63
                      A                      A                      A
 Frequencies --   3125.2529              3155.4303              3156.3952
 Red. masses --      1.1016                 1.0985                 1.0972
 Frc consts  --      6.3393                 6.4440                 6.4407
 IR Inten    --     71.9118                53.8590                 0.3446

 - Thermochemistry -
 -------------------
 Temperature   298.150 Kelvin.  Pressure   1.00000 Atm.
 Atom     1 has atomic number  6 and mass  12.00000

 Molecular mass:   100.12520 amu.
 Principal axes and moments of inertia in atomic units:
                           1         2         3
     Eigenvalues --   579.879121034.876941360.94070
           X            0.99999  -0.00000   0.00359
           Y            0.00000   1.00000   0.00000
           Z           -0.00359  -0.00000   0.99999
 This molecule is an asymmetric top.
 Rotational symmetry number  1.
 Warning -- assumption of classical behavior for rotation
           may cause significant error
 Rotational temperatures (Kelvin)      0.14937     0.08369     0.06364
 Rotational constants (GHZ):           3.11227     1.74392     1.32610
 Zero-point vibrational energy     576717.8 (Joules/Mol)
                                  137.83887 (Kcal/Mol)
 Warning -- explicit consideration of  11 degrees of freedom as
           vibrations may cause significant error
 Vibrational temperatures:     84.92   126.86   186.94   288.76   313.79
          (Kelvin)            386.48   394.52   514.22   529.03   597.69
                              693.74  1049.26  1093.78  1140.43  1180.91
                             1206.63  1308.94  1369.92  1388.86  1488.53
                             1528.68  1531.23  1578.51  1636.86  1642.07
                             1696.94  1779.27  1780.16  1880.52  1898.57
                             1914.23  1964.62  1984.88  1994.38  2007.24
                             2021.29  2036.01  2038.91  2137.05  2137.21
                             2145.31  2155.08  2157.43  2164.46  2168.71
                             2181.10  2189.69  4369.50  4384.38  4384.61
                             4392.51  4399.49  4408.09  4410.09  4421.27
                             4442.21  4442.71  4451.42  4451.46  4496.20
                             4496.54  4539.96  4541.35

 Zero-point correction=                           0.219660 (Hartree/Particle)
 Thermal correction to Energy=                    0.228865
 Thermal correction to Enthalpy=                  0.229809
 Thermal correction to Gibbs Free Energy=         0.185889
 Sum of electronic and zero-point Energies=           -276.112155
 Sum of electronic and thermal Energies=              -276.102950
 Sum of electronic and thermal Enthalpies=            -276.102006
 Sum of electronic and thermal Free Energies=         -276.145926

                     E (Thermal)             CV                S
                      KCal/Mol        Cal/Mol-Kelvin    Cal/Mol-Kelvin
 Total                  143.615             33.618             92.437
 Electronic               0.000              0.000              0.000
 Translational            0.889              2.981             39.722
 Rotational               0.889              2.981             28.192
 Vibrational            141.837             27.657             24.523
 Vibration     1          0.596              1.974              4.490
 Vibration     2          0.601              1.957              3.700
 Vibration     3          0.612              1.923              2.947
 Vibration     4          0.638              1.839              2.127
 Vibration     5          0.646              1.814              1.975
 Vibration     6          0.673              1.731              1.605
 Vibration     7          0.677              1.721              1.570
 Vibration     8          0.733              1.560              1.133
 Vibration     9          0.740              1.539              1.089
 Vibration    10          0.779              1.437              0.908
 Vibration    11          0.838              1.290              0.704

 Optimization completed.
    -- Stationary point found.
 Normal termination of Gaussian 16 at Mon Sep 30 07:42:52 2019.
