 Gaussian 16, Revision A.03,
 Gaussian 16:  EM64L-G16RevA.03 25-Dec-2016

 ----------------------------------------------------------------------
 #p m062x/cc-pVTZ opt=(calcfc,maxcycles=900,Tight) freq IOP(7/33=1,2/16
 =3) scf=(maxcycle=900)
 ----------------------------------------------------------------------

 ------------------------------
 Gaussian input prepared by ASE
 ------------------------------
 Symbolic Z-matrix:
 Charge =  0 Multiplicity = 1

 SCF Done:  E(RM062X) =  -276.317587269     A.U. after   11 cycles
 SCF Done:  E(RM062X) =  -276.331974991     A.U. after   12 cycles
 SCF Done:  E(RM062X) =  -276.330655803     A.U. after   10 cycles
 SCF Done:  E(RM062X) =  -276.335145001     A.U. after   10 cycles
 SCF Done:  E(RM062X) =  -276.307603791     A.U. after   11 cycles
 SCF Done:  E(RM062X) =  -276.335803579     A.U. after    9 cycles
 SCF Done:  E(RM062X) =  -276.336083714     A.U. after    9 cycles
 SCF Done:  E(RM062X) =  -276.336194315     A.U. after    9 cycles
 SCF Done:  E(RM062X) =  -276.336272686     A.U. after    9 cycles
 SCF Done:  E(RM062X) =  -276.336364130     A.U. after    9 cycles
 SCF Done:  E(RM062X) =  -276.336603548     A.U. after    8 cycles
 SCF Done:  E(RM062X) =  -276.336624199     A.U. after    9 cycles
 SCF Done:  E(RM062X) =  -276.336626721     A.U. after    8 cycles
 SCF Done:  E(RM062X) =  -276.336627715     A.U. after    7 cycles
 SCF Done:  E(RM062X) =  -276.336627817     A.U. after    5 cycles
 SCF Done:  E(RM062X) =  -276.336627842     A.U. after    4 cycles
 SCF Done:  E(RM062X) =  -276.336627840     A.U. after    4 cycles
 SCF Done:  E(RM062X) =  -276.336627851     A.U. after    5 cycles
 SCF Done:  E(RM062X) =  -276.336627838     A.U. after    5 cycles
 Optimization completed.
    -- Stationary point found.
 Normal termination of Gaussian 16 at Sun Sep 29 19:58:13 2019.

 ----------------------------------------------------------------------
 #P Geom=AllCheck Guess=TCheck SCRF=Check Test GenChk RM062X/CC-pVTZ Fr
 eq
 ----------------------------------------------------------------------

 Structure from the checkpoint file:  "/scratch/harms.n/gauss_scrdir/Gau-21461.chk"
 ------------------------------
 Gaussian input prepared by ASE
 ------------------------------
 Charge =  0 Multiplicity = 1

                         Standard orientation:
 ---------------------------------------------------------------------
 Center     Atomic      Atomic             Coordinates (Angstroms)
 Number     Number       Type             X           Y           Z
 ---------------------------------------------------------------------
      1          6           0        0.877861   -0.530041    0.714485
      2          6           0       -0.022874   -0.899289   -0.463315
      3          6           0       -1.497650   -1.087467   -0.078311
      4          6           0        2.332495   -0.278862    0.324300
      5          6           0       -2.371363    0.139910   -0.338466
      6          6           0        2.522541    0.968618   -0.532830
      7          6           0       -1.914087    1.398319    0.390171
      8          1           0        2.718725   -1.152682   -0.207781
      9          1           0        2.931675   -0.181633    1.231685
     10          1           0        0.834318   -1.343042    1.443937
     11          1           0        0.484994    0.355053    1.221903
     12          1           0        0.366688   -1.818725   -0.907112
     13          1           0        0.045006   -0.135762   -1.243293
     14          1           0       -1.561185   -1.357433    0.980544
     15          1           0       -1.918657   -1.927859   -0.632437
     16          1           0       -2.389058    0.335471   -1.414063
     17          1           0       -3.399513   -0.089888   -0.051317
     18          1           0        2.024335    0.875695   -1.497432
     19          1           0        2.111807    1.846272   -0.029738
     20          1           0        3.577851    1.158714   -0.726260
     21          1           0       -0.926195    1.715489    0.053266
     22          1           0       -1.859932    1.228514    1.467118
     23          1           0       -2.602397    2.224682    0.214778
 ---------------------------------------------------------------------

 SCF Done:  E(RM062X) =  -276.336627838     A.U. after    1 cycles

 The electronic state is 1-A.
 Alpha  occ. eigenvalues --  -10.52659 -10.52613 -10.52450 -10.52405 -10.52355
 Alpha  occ. eigenvalues --  -10.51947 -10.51931  -0.91180  -0.87633  -0.82052
 Alpha  occ. eigenvalues --   -0.76684  -0.71298  -0.65382  -0.64277  -0.54552
 Alpha  occ. eigenvalues --   -0.52262  -0.51371  -0.50574  -0.47148  -0.46412
 Alpha  occ. eigenvalues --   -0.44246  -0.43070  -0.42124  -0.41015  -0.39185
 Alpha  occ. eigenvalues --   -0.38524  -0.37233  -0.36580  -0.35831
 Alpha virt. eigenvalues --    0.06834   0.08008   0.08843   0.09194   0.11913
 Alpha virt. eigenvalues --    0.12145   0.12983   0.13523   0.13660   0.14866
 Alpha virt. eigenvalues --    0.15591   0.16542   0.17427   0.18115   0.19378

 Mulliken charges:
               1
     1  C   -0.292308
     2  C   -0.298242
     3  C   -0.264844
     4  C   -0.235027
     5  C   -0.228233
     6  C   -0.378599
     7  C   -0.388979
     8  H    0.123544
     9  H    0.127027
    10  H    0.139352
    11  H    0.158228
    12  H    0.141849
    13  H    0.147820
    14  H    0.133595
    15  H    0.132201
    16  H    0.125797
    17  H    0.125945
    18  H    0.122016
    19  H    0.118257
    20  H    0.122697
    21  H    0.120223
    22  H    0.124328
    23  H    0.123354
 Sum of Mulliken charges =  -0.00000

 Dipole moment (field-independent basis, Debye):
    X=             -0.0292    Y=             -0.0974    Z=             -0.0028  Tot=              0.1017
 Quadrupole moment (field-independent basis, Debye-Ang):
   XX=            -48.6562   YY=            -48.9985   ZZ=            -48.7569
   XY=             -0.1557   XZ=              0.1392   YZ=              0.1006

  Exact polarizability:  94.922   0.435  82.634   0.284  -0.096  76.261
 Approx polarizability:  98.218  -0.100  97.140  -0.191  -0.091  96.999

                      1                      2                      3
                      A                      A                      A
 Frequencies --     31.7950                91.1973               134.6774
 Red. masses --      2.4804                 2.1453                 1.7375
 Frc consts  --      0.0015                 0.0105                 0.0186
 IR Inten    --      0.0034                 0.0223                 0.0675

                      4                      5                      6
                      A                      A                      A
 Frequencies --    139.7367               225.4327               277.2029
 Red. masses --      1.7925                 1.7266                 1.6815
 Frc consts  --      0.0206                 0.0517                 0.0761
 IR Inten    --      0.0132                 0.0467                 0.0867

                      7                      8                      9
                      A                      A                      A
 Frequencies --    285.3229               316.0861               341.4754
 Red. masses --      1.4123                 1.3204                 2.4123
 Frc consts  --      0.0677                 0.0777                 0.1657
 IR Inten    --      0.0297                 0.0608                 0.1112

                     10                     11                     12
                      A                      A                      A
 Frequencies --    418.3864               502.7580               735.2751
 Red. masses --      2.0211                 1.9338                 1.1800
 Frc consts  --      0.2085                 0.2880                 0.3759
 IR Inten    --      0.0463                 0.3332                 3.1582

                     13                     14                     15
                      A                      A                      A
 Frequencies --    762.1249               786.4290               839.7265
 Red. masses --      1.3415                 1.2509                 1.6400
 Frc consts  --      0.4591                 0.4558                 0.6813
 IR Inten    --      1.4725                 2.6949                 2.0321

                     16                     17                     18
                      A                      A                      A
 Frequencies --    869.7985               912.1597               951.9649
 Red. masses --      1.9852                 1.6576                 1.5972
 Frc consts  --      0.8849                 0.8126                 0.8528
 IR Inten    --      0.6293                 0.7433                 0.9957

                     19                     20                     21
                      A                      A                      A
 Frequencies --    960.3593              1017.4529              1063.4985
 Red. masses --      1.5998                 1.7957                 1.5239
 Frc consts  --      0.8693                 1.0952                 1.0155
 IR Inten    --      0.9802                 1.8408                 0.9961

                     22                     23                     24
                      A                      A                      A
 Frequencies --   1073.7955              1097.4821              1120.7332
 Red. masses --      1.3452                 2.2448                 1.9613
 Frc consts  --      0.9138                 1.5930                 1.4515
 IR Inten    --      0.6280                 0.7260                 0.0329

                     25                     26                     27
                      A                      A                      A
 Frequencies --   1159.3769              1170.6409              1236.7735
 Red. masses --      1.9658                 2.0344                 1.4026
 Frc consts  --      1.5568                 1.6426                 1.2641
 IR Inten    --      0.9364                 0.6910                 0.4586

                     28                     29                     30
                      A                      A                      A
 Frequencies --   1256.2650              1300.0045              1309.1918
 Red. masses --      1.3282                 1.2367                 1.2059
 Frc consts  --      1.2351                 1.2314                 1.2178
 IR Inten    --      0.4511                 1.3502                 0.1659

                     31                     32                     33
                      A                      A                      A
 Frequencies --   1332.6289              1341.1190              1376.6594
 Red. masses --      1.1172                 1.2230                 1.4130
 Frc consts  --      1.1689                 1.2960                 1.5777
 IR Inten    --      0.4623                 0.5988                 3.9586

                     34                     35                     36
                      A                      A                      A
 Frequencies --   1380.5909              1383.1298              1401.6488
 Red. masses --      1.3254                 1.4689                 1.5713
 Frc consts  --      1.4884                 1.6556                 1.8189
 IR Inten    --      0.3791                 0.2520                 0.8469

                     37                     38                     39
                      A                      A                      A
 Frequencies --   1416.0907              1417.1344              1486.2726
 Red. masses --      1.3031                 1.3074                 1.0742
 Frc consts  --      1.5396                 1.5470                 1.3980
 IR Inten    --      3.8847                 7.1019                 0.3938

                     40                     41                     42
                      A                      A                      A
 Frequencies --   1490.3021              1491.6328              1494.3545
 Red. masses --      1.0694                 1.0628                 1.0755
 Frc consts  --      1.3994                 1.3932                 1.4150
 IR Inten    --      1.4996                 1.7258                 0.9514

                     43                     44                     45
                      A                      A                      A
 Frequencies --   1503.6376              1506.3762              1508.3131
 Red. masses --      1.0614                 1.0855                 1.0621
 Frc consts  --      1.4139                 1.4513                 1.4237
 IR Inten    --      1.1636                10.5650                 5.0545

                     46                     47                     48
                      A                      A                      A
 Frequencies --   1513.1219              1517.8242              3041.3103
 Red. masses --      1.0587                 1.0599                 1.0675
 Frc consts  --      1.4282                 1.4387                 5.8176
 IR Inten    --     14.4111                 7.4310                11.6003

                     49                     50                     51
                      A                      A                      A
 Frequencies --   3044.6044              3048.4982              3049.1436
 Red. masses --      1.0594                 1.0610                 1.0641
 Frc consts  --      5.7858                 5.8095                 5.8287
 IR Inten    --      1.6422                16.2716                26.9324

                     52                     53                     54
                      A                      A                      A
 Frequencies --   3053.9757              3056.9045              3059.0087
 Red. masses --      1.0582                 1.0411                 1.0398
 Frc consts  --      5.8151                 5.7318                 5.7327
 IR Inten    --     31.7093                26.6961                22.9822

                     55                     56                     57
                      A                      A                      A
 Frequencies --   3074.6408              3085.5849              3087.4625
 Red. masses --      1.0977                 1.0981                 1.0987
 Frc consts  --      6.1140                 6.1596                 6.1708
 IR Inten    --      1.7992                25.2595                25.9721

                     58                     59                     60
                      A                      A                      A
 Frequencies --   3093.5361              3100.4948              3125.4238
 Red. masses --      1.1001                 1.1021                 1.1020
 Frc consts  --      6.2026                 6.2420                 6.3425
 IR Inten    --     23.5218                80.4548                41.2881

                     61                     62                     63
                      A                      A                      A
 Frequencies --   3125.7451              3131.2732              3137.0507
 Red. masses --      1.1003                 1.1013                 1.1015
 Frc consts  --      6.3337                 6.3622                 6.3869
 IR Inten    --     35.9521                31.9702                35.5302

 - Thermochemistry -
 -------------------
 Temperature   298.150 Kelvin.  Pressure   1.00000 Atm.
 Atom     1 has atomic number  6 and mass  12.00000

 Molecular mass:   100.12520 amu.
 Principal axes and moments of inertia in atomic units:
                           1         2         3
     Eigenvalues --   439.828771411.732451618.67934
           X            0.99999   0.00071  -0.00403
           Y           -0.00071   1.00000  -0.00156
           Z            0.00403   0.00156   0.99999
 This molecule is an asymmetric top.
 Rotational symmetry number  1.
 Warning -- assumption of classical behavior for rotation
           may cause significant error
 Rotational temperatures (Kelvin)      0.19693     0.06135     0.05351
 Rotational constants (GHZ):           4.10328     1.27839     1.11495
 Zero-point vibrational energy     575778.3 (Joules/Mol)
                                  137.61432 (Kcal/Mol)
 Warning -- explicit consideration of  11 degrees of freedom as
           vibrations may cause significant error
 Vibrational temperatures:     45.75   131.21   193.77   201.05   324.35
          (Kelvin)            398.83   410.52   454.78   491.31   601.96
                              723.36  1057.90  1096.53  1131.50  1208.18
                             1251.45  1312.39  1369.67  1381.74  1463.89
                             1530.14  1544.95  1579.03  1612.49  1668.08
                             1684.29  1779.44  1807.49  1870.42  1883.63
                             1917.36  1929.57  1980.71  1986.36  1990.02
                             2016.66  2037.44  2038.94  2138.41  2144.21
                             2146.13  2150.04  2163.40  2167.34  2170.13
                             2177.04  2183.81  4375.77  4380.51  4386.11
                             4387.04  4393.99  4398.20  4401.23  4423.72
                             4439.47  4442.17  4450.91  4460.92  4496.79
                             4497.25  4505.20  4513.52

 Zero-point correction=                           0.219302 (Hartree/Particle)
 Thermal correction to Energy=                    0.228662
 Thermal correction to Enthalpy=                  0.229606
 Thermal correction to Gibbs Free Energy=         0.184729
 Sum of electronic and zero-point Energies=           -276.117325
 Sum of electronic and thermal Energies=              -276.107966
 Sum of electronic and thermal Enthalpies=            -276.107021
 Sum of electronic and thermal Free Energies=         -276.151899

                     E (Thermal)             CV                S
                      KCal/Mol        Cal/Mol-Kelvin    Cal/Mol-Kelvin
 Total                  143.488             33.684             94.452
 Electronic               0.000              0.000              0.000
 Translational            0.889              2.981             39.722
 Rotational               0.889              2.981             28.399
 Vibrational            141.710             27.723             26.332
 Vibration     1          0.594              1.983              5.714
 Vibration     2          0.602              1.955              3.634
 Vibration     3          0.613              1.919              2.878
 Vibration     4          0.615              1.914              2.807
 Vibration     5          0.650              1.802              1.915
 Vibration     6          0.678              1.716              1.551
 Vibration     7          0.683              1.701              1.502
 Vibration     8          0.703              1.643              1.330
 Vibration     9          0.721              1.593              1.205
 Vibration    10          0.781              1.430              0.897
 Vibration    11          0.858              1.244              0.651

 Optimization completed.
    -- Stationary point found.
 Normal termination of Gaussian 16 at Sun Sep 29 22:42:39 2019.
