 Gaussian 16, Revision A.03,
 Gaussian 16:  EM64L-G16RevA.03 25-Dec-2016

 ----------------------------------------------------------------------
 #p m062x/cc-pVTZ opt=(calcfc,maxcycles=900,Tight) freq IOP(7/33=1,2/16
 =3) scf=(maxcycle=900)
 ----------------------------------------------------------------------

 ------------------------------
 Gaussian input prepared by ASE
 ------------------------------
 Symbolic Z-matrix:
 Charge =  0 Multiplicity = 1

 SCF Done:  E(RM062X) =  -276.317699151     A.U. after   11 cycles
 SCF Done:  E(RM062X) =  -276.332776061     A.U. after   10 cycles
 SCF Done:  E(RM062X) =  -276.331563420     A.U. after   10 cycles
 SCF Done:  E(RM062X) =  -276.334980906     A.U. after   10 cycles
 SCF Done:  E(RM062X) =  -276.336030292     A.U. after   10 cycles
 SCF Done:  E(RM062X) =  -276.336337808     A.U. after    9 cycles
 SCF Done:  E(RM062X) =  -276.336410556     A.U. after    9 cycles
 SCF Done:  E(RM062X) =  -276.336431285     A.U. after    9 cycles
 SCF Done:  E(RM062X) =  -276.336444761     A.U. after    8 cycles
 SCF Done:  E(RM062X) =  -276.336450453     A.U. after    7 cycles
 SCF Done:  E(RM062X) =  -276.336453999     A.U. after    3 cycles
 SCF Done:  E(RM062X) =  -276.336454004     A.U. after    4 cycles
 SCF Done:  E(RM062X) =  -276.336454008     A.U. after    4 cycles
 SCF Done:  E(RM062X) =  -276.336454010     A.U. after    4 cycles
 SCF Done:  E(RM062X) =  -276.336454011     A.U. after    3 cycles
 SCF Done:  E(RM062X) =  -276.336454010     A.U. after    4 cycles
 SCF Done:  E(RM062X) =  -276.336454011     A.U. after    4 cycles
 SCF Done:  E(RM062X) =  -276.336454011     A.U. after    2 cycles
 SCF Done:  E(RM062X) =  -276.336454011     A.U. after    2 cycles
 Optimization completed.
    -- Stationary point found.
 Normal termination of Gaussian 16 at Sun Sep 29 23:47:08 2019.

 ----------------------------------------------------------------------
 #P Geom=AllCheck Guess=TCheck SCRF=Check Test GenChk RM062X/CC-pVTZ Fr
 eq
 ----------------------------------------------------------------------

 Structure from the checkpoint file:  "/scratch/harms.n/gauss_scrdir/Gau-1383.chk"
 ------------------------------
 Gaussian input prepared by ASE
 ------------------------------
 Charge =  0 Multiplicity = 1

                         Standard orientation:
 ---------------------------------------------------------------------
 Center     Atomic      Atomic             Coordinates (Angstroms)
 Number     Number       Type             X           Y           Z
 ---------------------------------------------------------------------
      1          6           0       -1.130286    0.627099    0.775047
      2          6           0       -0.248553    1.203716   -0.343765
      3          6           0        1.244535    0.937457   -0.155034
      4          6           0       -1.762525   -0.727603    0.445098
      5          6           0        1.629069   -0.536883   -0.098644
      6          6           0       -2.899474   -0.614777   -0.564971
      7          6           0        3.136201   -0.732731    0.009165
      8          1           0       -2.146083   -1.178953    1.362373
      9          1           0       -0.999381   -1.407461    0.061050
     10          1           0       -1.937126    1.326034    1.008547
     11          1           0       -0.531935    0.541727    1.686330
     12          1           0       -0.396352    2.282529   -0.411730
     13          1           0       -0.563870    0.795056   -1.308207
     14          1           0        1.578844    1.423566    0.767310
     15          1           0        1.798530    1.413210   -0.969208
     16          1           0        1.139803   -1.012853    0.754348
     17          1           0        1.252595   -1.042492   -0.992619
     18          1           0       -3.700501    0.013627   -0.172401
     19          1           0       -2.560975   -0.169860   -1.501220
     20          1           0       -3.323137   -1.591195   -0.798191
     21          1           0        3.525686   -0.246799    0.905131
     22          1           0        3.646473   -0.295999   -0.850565
     23          1           0        3.403629   -1.787805    0.057676
 ---------------------------------------------------------------------

 SCF Done:  E(RM062X) =  -276.336454011     A.U. after    1 cycles

 The electronic state is 1-A.
 Alpha  occ. eigenvalues --  -10.52641 -10.52580 -10.52492 -10.52470 -10.52432
 Alpha  occ. eigenvalues --  -10.51963 -10.51882  -0.91244  -0.87516  -0.82451
 Alpha  occ. eigenvalues --   -0.76232  -0.71136  -0.66226  -0.63867  -0.54497
 Alpha  occ. eigenvalues --   -0.52867  -0.51371  -0.49081  -0.48228  -0.46264
 Alpha  occ. eigenvalues --   -0.44641  -0.43039  -0.41618  -0.40736  -0.39514
 Alpha  occ. eigenvalues --   -0.38624  -0.37290  -0.36335  -0.36164
 Alpha virt. eigenvalues --    0.06894   0.08173   0.08871   0.09051   0.11499
 Alpha virt. eigenvalues --    0.12104   0.13009   0.13759   0.14481   0.15220
 Alpha virt. eigenvalues --    0.15907   0.16468   0.17392   0.18379   0.19202

 Mulliken charges:
               1
     1  C   -0.294043
     2  C   -0.279352
     3  C   -0.245453
     4  C   -0.259245
     5  C   -0.258191
     6  C   -0.350913
     7  C   -0.362192
     8  H    0.128854
     9  H    0.146242
    10  H    0.140879
    11  H    0.145330
    12  H    0.136419
    13  H    0.140706
    14  H    0.133725
    15  H    0.132108
    16  H    0.136211
    17  H    0.133968
    18  H    0.111263
    19  H    0.114982
    20  H    0.115225
    21  H    0.109465
    22  H    0.109892
    23  H    0.114121
 Sum of Mulliken charges =  -0.00000

 Dipole moment (field-independent basis, Debye):
    X=             -0.0075    Y=             -0.0121    Z=              0.0370  Tot=              0.0397
 Quadrupole moment (field-independent basis, Debye-Ang):
   XX=            -49.7724   YY=            -48.7239   ZZ=            -48.4999
   XY=             -0.0330   XZ=             -0.3892   YZ=              0.0518

  Exact polarizability:  98.234   0.266  81.141   0.705  -0.169  75.758
 Approx polarizability:  98.473   0.311  96.997   0.155   0.195  96.824

                      1                      2                      3
                      A                      A                      A
 Frequencies --     57.6115               110.8142               126.4343
 Red. masses --      2.4364                 1.9985                 1.5959
 Frc consts  --      0.0048                 0.0145                 0.0150
 IR Inten    --      0.0031                 0.0251                 0.0109

                      4                      5                      6
                      A                      A                      A
 Frequencies --    145.1098               213.6960               239.9065
 Red. masses --      2.1879                 1.7881                 1.3659
 Frc consts  --      0.0271                 0.0481                 0.0463
 IR Inten    --      0.0412                 0.0457                 0.0032

                      7                      8                      9
                      A                      A                      A
 Frequencies --    255.6949               292.4284               363.9316
 Red. masses --      1.2156                 2.2408                 2.0770
 Frc consts  --      0.0468                 0.1129                 0.1621
 IR Inten    --      0.0119                 0.0325                 0.0318

                     10                     11                     12
                      A                      A                      A
 Frequencies --    422.5744               486.3409               750.4689
 Red. masses --      1.8028                 2.0676                 1.1232
 Frc consts  --      0.1897                 0.2881                 0.3727
 IR Inten    --      0.2503                 0.1454                 2.1567

                     13                     14                     15
                      A                      A                      A
 Frequencies --    760.0424               796.7621               844.5395
 Red. masses --      1.4023                 1.5650                 1.5705
 Frc consts  --      0.4773                 0.5853                 0.6600
 IR Inten    --      3.4082                 0.5404                 1.8284

                     16                     17                     18
                      A                      A                      A
 Frequencies --    881.8104               890.8801               946.5115
 Red. masses --      1.7133                 1.6683                 1.3508
 Frc consts  --      0.7849                 0.7801                 0.7130
 IR Inten    --      0.5517                 0.6816                 2.3195

                     19                     20                     21
                      A                      A                      A
 Frequencies --    966.1818              1031.8544              1064.0726
 Red. masses --      1.5355                 2.5441                 1.3621
 Frc consts  --      0.8445                 1.5959                 0.9087
 IR Inten    --      3.7685                 0.3450                 0.3002

                     22                     23                     24
                      A                      A                      A
 Frequencies --   1076.6074              1080.9351              1121.7530
 Red. masses --      1.7894                 1.6201                 2.1314
 Frc consts  --      1.2220                 1.1153                 1.5802
 IR Inten    --      0.3735                 0.5453                 0.6133

                     25                     26                     27
                      A                      A                      A
 Frequencies --   1161.4644              1167.7999              1241.2767
 Red. masses --      2.0380                 1.9542                 1.3800
 Frc consts  --      1.6198                 1.5702                 1.2528
 IR Inten    --      0.2116                 0.6838                 0.2181

                     28                     29                     30
                      A                      A                      A
 Frequencies --   1257.9861              1294.4878              1311.8752
 Red. masses --      1.3118                 1.2348                 1.2254
 Frc consts  --      1.2231                 1.2191                 1.2425
 IR Inten    --      0.0596                 0.6106                 1.4278

                     31                     32                     33
                      A                      A                      A
 Frequencies --   1333.0782              1338.9821              1358.5542
 Red. masses --      1.1230                 1.2401                 1.3244
 Frc consts  --      1.1758                 1.3099                 1.4402
 IR Inten    --      0.2212                 0.6726                 3.1054

                     34                     35                     36
                      A                      A                      A
 Frequencies --   1383.0751              1392.0562              1407.5686
 Red. masses --      1.4300                 1.5030                 1.5754
 Frc consts  --      1.6117                 1.7160                 1.8390
 IR Inten    --      0.5754                 0.3570                 0.5680

                     37                     38                     39
                      A                      A                      A
 Frequencies --   1413.3377              1416.2899              1483.8972
 Red. masses --      1.2538                 1.2788                 1.0737
 Frc consts  --      1.4756                 1.5113                 1.3930
 IR Inten    --      4.1516                 3.7979                 1.5920

                     40                     41                     42
                      A                      A                      A
 Frequencies --   1489.4007              1496.4213              1498.0776
 Red. masses --      1.0680                 1.0693                 1.0700
 Frc consts  --      1.3958                 1.4108                 1.4148
 IR Inten    --      0.9810                 2.3869                 2.6173

                     43                     44                     45
                      A                      A                      A
 Frequencies --   1499.9840              1504.2125              1508.4499
 Red. masses --      1.0758                 1.0396                 1.0529
 Frc consts  --      1.4261                 1.3860                 1.4115
 IR Inten    --      0.3018                 7.6304                13.1206

                     46                     47                     48
                      A                      A                      A
 Frequencies --   1509.5028              1514.0729              3032.9098
 Red. masses --      1.0718                 1.0870                 1.0614
 Frc consts  --      1.4390                 1.4682                 5.7524
 IR Inten    --      6.4891                 4.1242                 8.3238

                     49                     50                     51
                      A                      A                      A
 Frequencies --   3045.5558              3047.3057              3048.7839
 Red. masses --      1.0632                 1.0614                 1.0647
 Frc consts  --      5.8104                 5.8071                 5.8309
 IR Inten    --     17.1608                27.8843                17.3506

                     52                     53                     54
                      A                      A                      A
 Frequencies --   3057.2141              3059.5356              3061.9568
 Red. masses --      1.0362                 1.0411                 1.0648
 Frc consts  --      5.7061                 5.7417                 5.8820
 IR Inten    --     43.3881                18.3827                23.7425

                     55                     56                     57
                      A                      A                      A
 Frequencies --   3068.8784              3082.2772              3089.9989
 Red. masses --      1.0908                 1.1006                 1.1009
 Frc consts  --      6.0526                 6.1608                 6.1935
 IR Inten    --      4.4470                34.3878                42.6889

                     58                     59                     60
                      A                      A                      A
 Frequencies --   3096.5690              3100.3979              3124.5245
 Red. masses --      1.1009                 1.0987                 1.1027
 Frc consts  --      6.2195                 6.2228                 6.3427
 IR Inten    --     29.6539                22.9282                47.0395

                     61                     62                     63
                      A                      A                      A
 Frequencies --   3128.8261              3133.2670              3133.4818
 Red. masses --      1.1021                 1.1016                 1.1014
 Frc consts  --      6.3565                 6.3717                 6.3717
 IR Inten    --     44.1194                 4.9140                54.9852

 - Thermochemistry -
 -------------------
 Temperature   298.150 Kelvin.  Pressure   1.00000 Atm.
 Atom     1 has atomic number  6 and mass  12.00000

 Molecular mass:   100.12520 amu.
 Principal axes and moments of inertia in atomic units:
                           1         2         3
     Eigenvalues --   383.617541575.568701741.34062
           X            0.99999  -0.00092   0.00410
           Y            0.00092   1.00000   0.00049
           Z           -0.00410  -0.00048   0.99999
 This molecule is an asymmetric top.
 Rotational symmetry number  1.
 Rotational temperatures (Kelvin)      0.22578     0.05497     0.04974
 Rotational constants (GHZ):           4.70453     1.14545     1.03641
 Zero-point vibrational energy     575525.2 (Joules/Mol)
                                  137.55382 (Kcal/Mol)
 Warning -- explicit consideration of  11 degrees of freedom as
           vibrations may cause significant error
 Vibrational temperatures:     82.89   159.44   181.91   208.78   307.46
          (Kelvin)            345.17   367.89   420.74   523.62   607.99
                              699.74  1079.76  1093.53  1146.36  1215.10
                             1268.73  1281.78  1361.82  1390.12  1484.61
                             1530.96  1549.00  1555.22  1613.95  1671.09
                             1680.20  1785.92  1809.96  1862.48  1887.50
                             1918.00  1926.50  1954.66  1989.94  2002.86
                             2025.18  2033.48  2037.73  2135.00  2142.92
                             2153.02  2155.40  2158.14  2164.23  2170.32
                             2171.84  2178.41  4363.68  4381.88  4384.39
                             4386.52  4398.65  4401.99  4405.47  4415.43
                             4434.71  4445.82  4455.27  4460.78  4495.49
                             4501.68  4508.07  4508.38

 Zero-point correction=                           0.219206 (Hartree/Particle)
 Thermal correction to Energy=                    0.228593
 Thermal correction to Enthalpy=                  0.229537
 Thermal correction to Gibbs Free Energy=         0.185082
 Sum of electronic and zero-point Energies=           -276.117248
 Sum of electronic and thermal Energies=              -276.107861
 Sum of electronic and thermal Enthalpies=            -276.106917
 Sum of electronic and thermal Free Energies=         -276.151372

                     E (Thermal)             CV                S
                      KCal/Mol        Cal/Mol-Kelvin    Cal/Mol-Kelvin
 Total                  143.444             33.785             93.565
 Electronic               0.000              0.000              0.000
 Translational            0.889              2.981             39.722
 Rotational               0.889              2.981             28.444
 Vibrational            141.667             27.823             25.399
 Vibration     1          0.596              1.974              4.537
 Vibration     2          0.607              1.941              3.255
 Vibration     3          0.611              1.927              3.000
 Vibration     4          0.617              1.908              2.735
 Vibration     5          0.644              1.820              2.012
 Vibration     6          0.657              1.779              1.804
 Vibration     7          0.666              1.753              1.691
 Vibration     8          0.688              1.688              1.460
 Vibration     9          0.737              1.547              1.105
 Vibration    10          0.785              1.421              0.883
 Vibration    11          0.842              1.280              0.693

                           ! Non-Optimized Parameters !
 Normal termination of Gaussian 16 at Mon Sep 30 03:02:43 2019.
