 Gaussian 16, Revision A.03,
 Gaussian 16:  EM64L-G16RevA.03 25-Dec-2016

 ----------------------------------------------------------------------
 #p m062x/cc-pVTZ opt=(calcfc,maxcycles=900,Tight) freq IOP(7/33=1,2/16
 =3) scf=(maxcycle=900)
 ----------------------------------------------------------------------

 ------------------------------
 Gaussian input prepared by ASE
 ------------------------------
 Symbolic Z-matrix:
 Charge =  0 Multiplicity = 1

 SCF Done:  E(RM062X) =  -276.319709912     A.U. after   11 cycles
 SCF Done:  E(RM062X) =  -276.330494427     A.U. after   12 cycles
 SCF Done:  E(RM062X) =  -276.311612938     A.U. after   12 cycles
 SCF Done:  E(RM062X) =  -276.333197649     A.U. after   10 cycles
 SCF Done:  E(RM062X) =  -276.333267025     A.U. after    9 cycles
 SCF Done:  E(RM062X) =  -276.333420375     A.U. after    9 cycles
 SCF Done:  E(RM062X) =  -276.333498756     A.U. after    8 cycles
 SCF Done:  E(RM062X) =  -276.333530565     A.U. after    8 cycles
 SCF Done:  E(RM062X) =  -276.334210492     A.U. after   10 cycles
 SCF Done:  E(RM062X) =  -276.333365967     A.U. after   10 cycles
 SCF Done:  E(RM062X) =  -276.337031912     A.U. after    9 cycles
 SCF Done:  E(RM062X) =  -276.337099791     A.U. after    8 cycles
 SCF Done:  E(RM062X) =  -276.337279924     A.U. after    9 cycles
 SCF Done:  E(RM062X) =  -276.337334955     A.U. after    9 cycles
 SCF Done:  E(RM062X) =  -276.337341552     A.U. after    9 cycles
 SCF Done:  E(RM062X) =  -276.337345791     A.U. after    8 cycles
 SCF Done:  E(RM062X) =  -276.337345821     A.U. after    6 cycles
 SCF Done:  E(RM062X) =  -276.337346470     A.U. after    6 cycles
 SCF Done:  E(RM062X) =  -276.337346470     A.U. after    4 cycles
 Optimization completed.
    -- Stationary point found.
 Normal termination of Gaussian 16 at Sun Sep 29 20:55:38 2019.

 ----------------------------------------------------------------------
 #P Geom=AllCheck Guess=TCheck SCRF=Check Test GenChk RM062X/CC-pVTZ Fr
 eq
 ----------------------------------------------------------------------

 Structure from the checkpoint file:  "/scratch/harms.n/gauss_scrdir/Gau-19858.chk"
 ------------------------------
 Gaussian input prepared by ASE
 ------------------------------
 Charge =  0 Multiplicity = 1

                         Standard orientation:
 ---------------------------------------------------------------------
 Center     Atomic      Atomic             Coordinates (Angstroms)
 Number     Number       Type             X           Y           Z
 ---------------------------------------------------------------------
      1          6           0       -0.869517   -0.205281   -0.337588
      2          6           0        0.237784   -1.014532    0.332430
      3          6           0        1.577477   -0.985872   -0.417152
      4          6           0       -2.160148   -0.177746    0.471128
      5          6           0        2.571032    0.047018    0.114981
      6          6           0       -3.270967    0.600200   -0.222644
      7          6           0        2.061091    1.482983    0.078608
      8          1           0       -1.958355    0.262014    1.451592
      9          1           0       -2.488332   -1.203749    0.658151
     10          1           0       -1.071238   -0.632179   -1.325168
     11          1           0       -0.532835    0.819249   -0.515288
     12          1           0       -0.110133   -2.045333    0.430849
     13          1           0        0.385732   -0.649615    1.354512
     14          1           0        1.390360   -0.792729   -1.478198
     15          1           0        2.049312   -1.968363   -0.365565
     16          1           0        2.831144   -0.214877    1.144155
     17          1           0        3.495414   -0.021682   -0.462216
     18          1           0       -2.969429    1.634275   -0.396122
     19          1           0       -3.506155    0.158457   -1.192087
     20          1           0       -4.185153    0.613068    0.369965
     21          1           0        1.195516    1.613985    0.729112
     22          1           0        1.763726    1.766584   -0.932683
     23          1           0        2.829911    2.180280    0.410414
 ---------------------------------------------------------------------

 SCF Done:  E(RM062X) =  -276.337346470     A.U. after    1 cycles

 The electronic state is 1-A.
 Alpha  occ. eigenvalues --  -10.52678 -10.52584 -10.52475 -10.52439 -10.52339
 Alpha  occ. eigenvalues --  -10.51980 -10.51921  -0.91160  -0.87718  -0.82307
 Alpha  occ. eigenvalues --   -0.76721  -0.70416  -0.65930  -0.64442  -0.55157
 Alpha  occ. eigenvalues --   -0.52340  -0.51510  -0.49284  -0.47134  -0.45942
 Alpha  occ. eigenvalues --   -0.45754  -0.42581  -0.41658  -0.41087  -0.39123
 Alpha  occ. eigenvalues --   -0.38561  -0.37740  -0.36573  -0.35865
 Alpha virt. eigenvalues --    0.06712   0.07841   0.09061   0.09272   0.10872
 Alpha virt. eigenvalues --    0.12443   0.12927   0.13607   0.14470   0.15333
 Alpha virt. eigenvalues --    0.16132   0.16804   0.17224   0.17828   0.19048

 Mulliken charges:
               1
     1  C   -0.277260
     2  C   -0.285086
     3  C   -0.267293
     4  C   -0.228340
     5  C   -0.227111
     6  C   -0.352478
     7  C   -0.390972
     8  H    0.121501
     9  H    0.122766
    10  H    0.135751
    11  H    0.151716
    12  H    0.138450
    13  H    0.139607
    14  H    0.134725
    15  H    0.131793
    16  H    0.126057
    17  H    0.125210
    18  H    0.109425
    19  H    0.109062
    20  H    0.113715
    21  H    0.120963
    22  H    0.124300
    23  H    0.123499
 Sum of Mulliken charges =  -0.00000

 Dipole moment (field-independent basis, Debye):
    X=              0.0916    Y=             -0.0883    Z=              0.0288  Tot=              0.1304
 Quadrupole moment (field-independent basis, Debye-Ang):
   XX=            -49.0300   YY=            -48.8212   ZZ=            -48.8090
   XY=              0.3423   XZ=             -0.1286   YZ=              0.3045

  Exact polarizability:  98.145  -1.101  81.724   0.101  -0.369  75.757
 Approx polarizability:  97.907   0.067  96.832   0.041  -0.203  97.390

                      1                      2                      3
                      A                      A                      A
 Frequencies --     67.1166                72.9863               126.5724
 Red. masses --      1.9981                 2.1456                 2.0332
 Frc consts  --      0.0053                 0.0067                 0.0192
 IR Inten    --      0.0052                 0.0051                 0.0142

                      4                      5                      6
                      A                      A                      A
 Frequencies --    149.0195               196.4390               242.1341
 Red. masses --      2.0206                 2.2539                 1.1266
 Frc consts  --      0.0264                 0.0512                 0.0389
 IR Inten    --      0.0401                 0.0104                 0.0011

                      7                      8                      9
                      A                      A                      A
 Frequencies --    287.3166               311.9454               361.2689
 Red. masses --      1.7704                 1.2191                 2.8616
 Frc consts  --      0.0861                 0.0699                 0.2200
 IR Inten    --      0.0518                 0.0200                 0.1245

                     10                     11                     12
                      A                      A                      A
 Frequencies --    408.2396               481.0050               729.5133
 Red. masses --      2.2968                 1.9645                 1.0911
 Frc consts  --      0.2255                 0.2678                 0.3421
 IR Inten    --      0.0515                 0.1669                 3.9309

                     13                     14                     15
                      A                      A                      A
 Frequencies --    763.1317               789.8682               838.1536
 Red. masses --      1.1945                 1.3007                 1.7249
 Frc consts  --      0.4098                 0.4781                 0.7139
 IR Inten    --      1.4055                 1.1485                 0.7903

                     16                     17                     18
                      A                      A                      A
 Frequencies --    878.9126               922.9407               941.3757
 Red. masses --      1.6169                 1.5568                 1.2862
 Frc consts  --      0.7359                 0.7813                 0.6716
 IR Inten    --      0.5486                 1.8856                 1.2808

                     19                     20                     21
                      A                      A                      A
 Frequencies --    974.2811              1037.6610              1064.0461
 Red. masses --      2.2578                 1.9222                 1.4151
 Frc consts  --      1.2627                 1.2194                 0.9440
 IR Inten    --      0.1660                 2.4754                 0.0851

                     22                     23                     24
                      A                      A                      A
 Frequencies --   1072.1574              1097.5953              1120.6277
 Red. masses --      1.9853                 1.9293                 1.9118
 Frc consts  --      1.3446                 1.3694                 1.4145
 IR Inten    --      1.2960                 1.5703                 0.2005

                     25                     26                     27
                      A                      A                      A
 Frequencies --   1157.8648              1184.4716              1244.2015
 Red. masses --      2.1547                 2.0206                 1.4095
 Frc consts  --      1.7019                 1.6702                 1.2856
 IR Inten    --      1.0092                 0.1626                 0.2062

                     28                     29                     30
                      A                      A                      A
 Frequencies --   1256.6320              1299.3983              1308.7381
 Red. masses --      1.3182                 1.2727                 1.2225
 Frc consts  --      1.2265                 1.2661                 1.2337
 IR Inten    --      0.7265                 0.8717                 0.4658

                     31                     32                     33
                      A                      A                      A
 Frequencies --   1326.0352              1334.6070              1368.1524
 Red. masses --      1.1455                 1.0599                 1.3457
 Frc consts  --      1.1867                 1.1123                 1.4841
 IR Inten    --      0.9315                 0.5007                 0.7500

                     34                     35                     36
                      A                      A                      A
 Frequencies --   1383.1625              1386.8966              1406.6521
 Red. masses --      1.3663                 1.4910                 1.6831
 Frc consts  --      1.5401                 1.6897                 1.9622
 IR Inten    --      1.7074                 0.6627                 1.2726

                     37                     38                     39
                      A                      A                      A
 Frequencies --   1413.6671              1417.3766              1488.4858
 Red. masses --      1.2703                 1.3282                 1.0671
 Frc consts  --      1.4957                 1.5721                 1.3930
 IR Inten    --      4.9686                 2.7696                 0.7481

                     40                     41                     42
                      A                      A                      A
 Frequencies --   1489.5874              1492.4962              1495.2182
 Red. masses --      1.0727                 1.0724                 1.0670
 Frc consts  --      1.4023                 1.4074                 1.4054
 IR Inten    --      1.2626                 0.9776                 1.4310

                     43                     44                     45
                      A                      A                      A
 Frequencies --   1503.7733              1504.7750              1508.8805
 Red. masses --      1.0399                 1.0770                 1.0647
 Frc consts  --      1.3855                 1.4369                 1.4283
 IR Inten    --      7.1461                 2.4221                 6.5606

                     46                     47                     48
                      A                      A                      A
 Frequencies --   1512.6534              1518.9650              3034.3778
 Red. masses --      1.0736                 1.0721                 1.0648
 Frc consts  --      1.4474                 1.4574                 5.7765
 IR Inten    --     14.8390                 4.8650                 2.5450

                     49                     50                     51
                      A                      A                      A
 Frequencies --   3039.1864              3043.4446              3048.8679
 Red. masses --      1.0653                 1.0631                 1.0607
 Frc consts  --      5.7972                 5.8018                 5.8094
 IR Inten    --      2.3319                10.4383                20.2474

                     52                     53                     54
                      A                      A                      A
 Frequencies --   3050.8874              3056.4494              3058.1782
 Red. masses --      1.0620                 1.0394                 1.0370
 Frc consts  --      5.8239                 5.7209                 5.7140
 IR Inten    --     55.2791                21.9717                37.4824

                     55                     56                     57
                      A                      A                      A
 Frequencies --   3068.8950              3076.4505              3086.6045
 Red. masses --      1.0917                 1.1019                 1.0984
 Frc consts  --      6.0579                 6.1445                 6.1654
 IR Inten    --     13.1956                 4.3473                22.6199

                     58                     59                     60
                      A                      A                      A
 Frequencies --   3093.5462              3100.3192              3125.2061
 Red. masses --      1.1004                 1.1005                 1.1027
 Frc consts  --      6.2046                 6.2321                 6.3454
 IR Inten    --     27.3221                66.8880                39.8420

                     61                     62                     63
                      A                      A                      A
 Frequencies --   3125.3523              3131.4918              3133.3320
 Red. masses --      1.1019                 1.1014                 1.1016
 Frc consts  --      6.3417                 6.3635                 6.3721
 IR Inten    --     46.6657                40.0956                25.4713

 - Thermochemistry -
 -------------------
 Temperature   298.150 Kelvin.  Pressure   1.00000 Atm.
 Atom     1 has atomic number  6 and mass  12.00000

 Molecular mass:   100.12520 amu.
 Principal axes and moments of inertia in atomic units:
                           1         2         3
     Eigenvalues --   368.523091664.955211875.73638
           X            1.00000   0.00030   0.00166
           Y           -0.00029   0.99999  -0.00486
           Z           -0.00166   0.00486   0.99999
 This molecule is an asymmetric top.
 Rotational symmetry number  1.
 Rotational temperatures (Kelvin)      0.23503     0.05202     0.04618
 Rotational constants (GHZ):           4.89723     1.08396     0.96215
 Zero-point vibrational energy     575461.1 (Joules/Mol)
                                  137.53851 (Kcal/Mol)
 Warning -- explicit consideration of  11 degrees of freedom as
           vibrations may cause significant error
 Vibrational temperatures:     96.57   105.01   182.11   214.41   282.63
          (Kelvin)            348.38   413.38   448.82   519.79   587.37
                              692.06  1049.61  1097.98  1136.44  1205.92
                             1264.56  1327.91  1354.43  1401.77  1492.96
                             1530.93  1542.60  1579.19  1612.33  1665.91
                             1704.19  1790.13  1808.01  1869.54  1882.98
                             1907.87  1920.20  1968.47  1990.06  1995.43
                             2023.86  2033.95  2039.29  2141.60  2143.18
                             2147.37  2151.29  2163.59  2165.04  2170.94
                             2176.37  2185.45  4365.79  4372.71  4378.84
                             4386.64  4389.55  4397.55  4400.04  4415.46
                             4426.33  4440.94  4450.92  4460.67  4496.47
                             4496.68  4505.52  4508.17

 Zero-point correction=                           0.219182 (Hartree/Particle)
 Thermal correction to Energy=                    0.228594
 Thermal correction to Enthalpy=                  0.229538
 Thermal correction to Gibbs Free Energy=         0.184864
 Sum of electronic and zero-point Energies=           -276.118165
 Sum of electronic and thermal Energies=              -276.108752
 Sum of electronic and thermal Enthalpies=            -276.107808
 Sum of electronic and thermal Free Energies=         -276.152482

                     E (Thermal)             CV                S
                      KCal/Mol        Cal/Mol-Kelvin    Cal/Mol-Kelvin
 Total                  143.445             33.765             94.025
 Electronic               0.000              0.000              0.000
 Translational            0.889              2.981             39.722
 Rotational               0.889              2.981             28.533
 Vibrational            141.668             27.803             25.770
 Vibration     1          0.598              1.970              4.236
 Vibration     2          0.599              1.967              4.071
 Vibration     3          0.611              1.927              2.997
 Vibration     4          0.618              1.904              2.685
 Vibration     5          0.636              1.845              2.166
 Vibration     6          0.658              1.776              1.787
 Vibration     7          0.684              1.697              1.490
 Vibration     8          0.700              1.651              1.352
 Vibration     9          0.735              1.552              1.117
 Vibration    10          0.773              1.452              0.933
 Vibration    11          0.837              1.292              0.707

 Optimization completed.
    -- Stationary point found.
 Normal termination of Gaussian 16 at Sun Sep 29 23:34:45 2019.
