 Gaussian 16, Revision A.03,
 Gaussian 16:  EM64L-G16RevA.03 25-Dec-2016

 ----------------------------------------------------------------------
 #p m062x/cc-pVTZ opt=(calcfc,maxcycles=900,Tight) freq IOP(7/33=1,2/16
 =3) scf=(maxcycle=900)
 ----------------------------------------------------------------------

 ------------------------------
 Gaussian input prepared by ASE
 ------------------------------
 Symbolic Z-matrix:
 Charge =  0 Multiplicity = 1

 SCF Done:  E(RM062X) =  -276.305690175     A.U. after   11 cycles
 SCF Done:  E(RM062X) =  -276.325975980     A.U. after   12 cycles
 SCF Done:  E(RM062X) =  -276.305446506     A.U. after   11 cycles
 SCF Done:  E(RM062X) =  -276.328016822     A.U. after   11 cycles
 SCF Done:  E(RM062X) =  -276.331188749     A.U. after   10 cycles
 SCF Done:  E(RM062X) =  -276.312472682     A.U. after   11 cycles
 SCF Done:  E(RM062X) =  -276.331067398     A.U. after   10 cycles
 SCF Done:  E(RM062X) =  -276.331762005     A.U. after    8 cycles
 SCF Done:  E(RM062X) =  -276.325151683     A.U. after   10 cycles
 SCF Done:  E(RM062X) =  -276.332461951     A.U. after    9 cycles
 SCF Done:  E(RM062X) =  -276.333166237     A.U. after    9 cycles
 SCF Done:  E(RM062X) =  -276.333175279     A.U. after    9 cycles
 SCF Done:  E(RM062X) =  -276.333170950     A.U. after    8 cycles
 SCF Done:  E(RM062X) =  -276.333176634     A.U. after    8 cycles
 SCF Done:  E(RM062X) =  -276.333176649     A.U. after    5 cycles
 SCF Done:  E(RM062X) =  -276.333176651     A.U. after    4 cycles
 SCF Done:  E(RM062X) =  -276.333176651     A.U. after    3 cycles
 SCF Done:  E(RM062X) =  -276.333176650     A.U. after    4 cycles
 SCF Done:  E(RM062X) =  -276.333176651     A.U. after    4 cycles
 Optimization completed.
    -- Stationary point found.
 Normal termination of Gaussian 16 at Mon Sep 30 06:42:51 2019.

 ----------------------------------------------------------------------
 #P Geom=AllCheck Guess=TCheck SCRF=Check Test GenChk RM062X/CC-pVTZ Fr
 eq
 ----------------------------------------------------------------------

 Structure from the checkpoint file:  "/scratch/harms.n/gauss_scrdir/Gau-43923.chk"
 ------------------------------
 Gaussian input prepared by ASE
 ------------------------------
 Charge =  0 Multiplicity = 1

                         Standard orientation:
 ---------------------------------------------------------------------
 Center     Atomic      Atomic             Coordinates (Angstroms)
 Number     Number       Type             X           Y           Z
 ---------------------------------------------------------------------
      1          6           0       -1.426568    1.119869   -0.111438
      2          6           0        0.077101    1.385370   -0.000633
      3          6           0        0.859140    0.439517    0.921672
      4          6           0       -1.844449   -0.233241   -0.701045
      5          6           0        1.483806   -0.764050    0.209225
      6          6           0       -1.956280   -1.363448    0.319493
      7          6           0        2.719558   -0.385838   -0.600808
      8          1           0       -1.151251   -0.511833   -1.499469
      9          1           0       -2.818838   -0.117896   -1.179576
     10          1           0       -1.851295    1.914406   -0.728497
     11          1           0       -1.881745    1.229333    0.878250
     12          1           0        0.201613    2.411464    0.350303
     13          1           0        0.513214    1.358746   -1.003707
     14          1           0        0.201398    0.103629    1.726624
     15          1           0        1.667671    0.992213    1.406961
     16          1           0        1.760022   -1.519482    0.948037
     17          1           0        0.749389   -1.231195   -0.449408
     18          1           0       -2.683442   -1.104060    1.090626
     19          1           0       -2.289686   -2.287095   -0.153975
     20          1           0       -1.010275   -1.570028    0.816827
     21          1           0        3.495091    0.022108    0.049184
     22          1           0        2.488511    0.370003   -1.352231
     23          1           0        3.135781   -1.249388   -1.118746
 ---------------------------------------------------------------------

 SCF Done:  E(RM062X) =  -276.333176651     A.U. after    1 cycles

 The electronic state is 1-A.
 Alpha  occ. eigenvalues --  -10.52694 -10.52651 -10.52509 -10.52473 -10.52437
 Alpha  occ. eigenvalues --  -10.51939 -10.51861  -0.91151  -0.87274  -0.82392
 Alpha  occ. eigenvalues --   -0.76770  -0.70991  -0.66340  -0.63655  -0.54509
 Alpha  occ. eigenvalues --   -0.52455  -0.51333  -0.49616  -0.47728  -0.46558
 Alpha  occ. eigenvalues --   -0.44855  -0.42826  -0.42385  -0.40058  -0.39657
 Alpha  occ. eigenvalues --   -0.38709  -0.37323  -0.36006  -0.35893
 Alpha virt. eigenvalues --    0.06796   0.08439   0.08740   0.09031   0.12001
 Alpha virt. eigenvalues --    0.12574   0.12983   0.13151   0.14033   0.14801
 Alpha virt. eigenvalues --    0.15493   0.16704   0.18123   0.18801   0.19775

 Mulliken charges:
               1
     1  C   -0.250500
     2  C   -0.272589
     3  C   -0.308399
     4  C   -0.271781
     5  C   -0.277666
     6  C   -0.383430
     7  C   -0.358479
     8  H    0.138184
     9  H    0.134684
    10  H    0.132123
    11  H    0.131418
    12  H    0.135720
    13  H    0.141978
    14  H    0.157711
    15  H    0.144679
    16  H    0.140996
    17  H    0.145819
    18  H    0.120203
    19  H    0.122665
    20  H    0.133135
    21  H    0.112569
    22  H    0.115382
    23  H    0.115580
 Sum of Mulliken charges =  -0.00000

 Dipole moment (field-independent basis, Debye):
    X=             -0.0472    Y=              0.0454    Z=             -0.0245  Tot=              0.0699
 Quadrupole moment (field-independent basis, Debye-Ang):
   XX=            -48.8880   YY=            -48.9380   ZZ=            -48.7743
   XY=             -0.2401   XZ=              0.3942   YZ=              0.2006

  Exact polarizability:  92.683   0.032  83.570  -0.554  -0.216  76.654
 Approx polarizability:  98.077  -0.005  97.140  -0.380   0.162  97.211

                      1                      2                      3
                      A                      A                      A
 Frequencies --     57.9427               117.0125               135.8729
 Red. masses --      1.9717                 2.0421                 2.2049
 Frc consts  --      0.0039                 0.0165                 0.0240
 IR Inten    --      0.0009                 0.0305                 0.0177

                      4                      5                      6
                      A                      A                      A
 Frequencies --    172.9119               228.0314               238.6649
 Red. masses --      1.8220                 1.3227                 1.3181
 Frc consts  --      0.0321                 0.0405                 0.0442
 IR Inten    --      0.0215                 0.0452                 0.0912

                      7                      8                      9
                      A                      A                      A
 Frequencies --    273.1340               316.3067               363.4236
 Red. masses --      2.3031                 1.8990                 1.8895
 Frc consts  --      0.1012                 0.1119                 0.1470
 IR Inten    --      0.1048                 0.0994                 0.1855

                     10                     11                     12
                      A                      A                      A
 Frequencies --    429.0472               466.7902               740.9454
 Red. masses --      1.8250                 1.5410                 1.6275
 Frc consts  --      0.1979                 0.1978                 0.5264
 IR Inten    --      0.1810                 0.1902                 0.1336

                     13                     14                     15
                      A                      A                      A
 Frequencies --    777.7482               794.8562               833.2680
 Red. masses --      1.2284                 1.5420                 1.5022
 Frc consts  --      0.4378                 0.5740                 0.6145
 IR Inten    --      8.1153                 0.3690                 0.7087

                     16                     17                     18
                      A                      A                      A
 Frequencies --    868.9967               886.9042               948.0409
 Red. masses --      2.1557                 1.6321                 1.4585
 Frc consts  --      0.9591                 0.7564                 0.7724
 IR Inten    --      3.2981                 1.0781                 3.8318

                     19                     20                     21
                      A                      A                      A
 Frequencies --    967.2191              1015.9091              1058.4553
 Red. masses --      1.6470                 1.8604                 1.5023
 Frc consts  --      0.9078                 1.1313                 0.9916
 IR Inten    --      0.9312                 0.3308                 0.5954

                     22                     23                     24
                      A                      A                      A
 Frequencies --   1077.9789              1091.5111              1137.4927
 Red. masses --      1.5955                 1.7661                 1.8422
 Frc consts  --      1.0924                 1.2397                 1.4044
 IR Inten    --      0.0959                 0.9142                 0.2459

                     25                     26                     27
                      A                      A                      A
 Frequencies --   1148.5918              1162.9280              1229.6512
 Red. masses --      1.9721                 1.9802                 1.3638
 Frc consts  --      1.5329                 1.5779                 1.2150
 IR Inten    --      1.0135                 0.7990                 0.4475

                     28                     29                     30
                      A                      A                      A
 Frequencies --   1264.7836              1296.4536              1306.9460
 Red. masses --      1.2731                 1.1958                 1.1826
 Frc consts  --      1.1999                 1.1842                 1.1901
 IR Inten    --      0.1951                 0.4204                 0.0601

                     31                     32                     33
                      A                      A                      A
 Frequencies --   1326.3595              1360.5344              1377.3191
 Red. masses --      1.1326                 1.3165                 1.3439
 Frc consts  --      1.1739                 1.4358                 1.5020
 IR Inten    --      0.9919                 2.3915                 1.0492

                     34                     35                     36
                      A                      A                      A
 Frequencies --   1385.4919              1390.7041              1399.3743
 Red. masses --      1.4326                 1.5342                 1.4645
 Frc consts  --      1.6202                 1.7483                 1.6896
 IR Inten    --      0.7232                 0.4469                 0.2533

                     37                     38                     39
                      A                      A                      A
 Frequencies --   1415.5334              1417.4274              1486.1463
 Red. masses --      1.2764                 1.2562                 1.0775
 Frc consts  --      1.5069                 1.4870                 1.4022
 IR Inten    --      3.0040                 8.4944                 2.4470

                     40                     41                     42
                      A                      A                      A
 Frequencies --   1488.0543              1490.5882              1496.8447
 Red. masses --      1.0687                 1.0808                 1.0775
 Frc consts  --      1.3943                 1.4149                 1.4224
 IR Inten    --      1.2821                 1.4783                 4.9567

                     43                     44                     45
                      A                      A                      A
 Frequencies --   1501.5172              1505.0791              1509.1370
 Red. masses --      1.0568                 1.0412                 1.0648
 Frc consts  --      1.4039                 1.3897                 1.4289
 IR Inten    --      1.9101                 4.2756                 3.9622

                     46                     47                     48
                      A                      A                      A
 Frequencies --   1511.3527              1519.1553              3037.3235
 Red. masses --      1.0721                 1.0668                 1.0664
 Frc consts  --      1.4429                 1.4505                 5.7963
 IR Inten    --     17.8704                 2.8030                15.7004

                     49                     50                     51
                      A                      A                      A
 Frequencies --   3046.1232              3049.0163              3051.2687
 Red. masses --      1.0629                 1.0630                 1.0621
 Frc consts  --      5.8111                 5.8222                 5.8263
 IR Inten    --     14.7243                17.8779                 9.4481

                     52                     53                     54
                      A                      A                      A
 Frequencies --   3060.1187              3061.6227              3064.1771
 Red. masses --      1.0390                 1.0627                 1.0404
 Frc consts  --      5.7325                 5.8689                 5.7554
 IR Inten    --     25.8755                23.2225                16.0463

                     55                     56                     57
                      A                      A                      A
 Frequencies --   3081.7427              3087.0799              3089.2744
 Red. masses --      1.0996                 1.0986                 1.0955
 Frc consts  --      6.1529                 6.1685                 6.1602
 IR Inten    --      7.1420                64.7976                48.2461

                     58                     59                     60
                      A                      A                      A
 Frequencies --   3091.2459              3100.0705              3125.4144
 Red. masses --      1.1001                 1.0988                 1.1015
 Frc consts  --      6.1937                 6.2218                 6.3394
 IR Inten    --     46.4312                17.3901                27.9670

                     61                     62                     63
                      A                      A                      A
 Frequencies --   3129.1415              3133.1493              3152.4498
 Red. masses --      1.1023                 1.1013                 1.0984
 Frc consts  --      6.3591                 6.3699                 6.4313
 IR Inten    --     51.9240                29.6573                21.5412

 - Thermochemistry -
 -------------------
 Temperature   298.150 Kelvin.  Pressure   1.00000 Atm.
 Atom     1 has atomic number  6 and mass  12.00000

 Molecular mass:   100.12520 amu.
 Principal axes and moments of inertia in atomic units:
                           1         2         3
     Eigenvalues --   501.519771214.373881433.51996
           X            0.99996   0.00583  -0.00678
           Y           -0.00588   0.99995  -0.00778
           Z            0.00673   0.00782   0.99995
 This molecule is an asymmetric top.
 Rotational symmetry number  1.
 Warning -- assumption of classical behavior for rotation
           may cause significant error
 Rotational temperatures (Kelvin)      0.17270     0.07132     0.06042
 Rotational constants (GHZ):           3.59854     1.48615     1.25896
 Zero-point vibrational energy     576287.0 (Joules/Mol)
                                  137.73589 (Kcal/Mol)
 Warning -- explicit consideration of  11 degrees of freedom as
           vibrations may cause significant error
 Vibrational temperatures:     83.37   168.35   195.49   248.78   328.09
          (Kelvin)            343.39   392.98   455.09   522.89   617.30
                              671.61  1066.06  1119.01  1143.62  1198.89
                             1250.29  1276.06  1364.02  1391.61  1461.67
                             1522.88  1550.97  1570.44  1636.60  1652.57
                             1673.19  1769.19  1819.74  1865.31  1880.40
                             1908.34  1957.51  1981.66  1993.41  2000.91
                             2013.39  2036.64  2039.36  2138.23  2140.98
                             2144.62  2153.63  2160.35  2165.47  2171.31
                             2174.50  2185.73  4370.03  4382.69  4386.85
                             4390.10  4402.83  4404.99  4408.67  4433.94
                             4441.62  4444.78  4447.61  4460.31  4496.77
                             4502.14  4507.90  4535.67

 Zero-point correction=                           0.219496 (Hartree/Particle)
 Thermal correction to Energy=                    0.228749
 Thermal correction to Enthalpy=                  0.229693
 Thermal correction to Gibbs Free Energy=         0.185750
 Sum of electronic and zero-point Energies=           -276.113681
 Sum of electronic and thermal Energies=              -276.104428
 Sum of electronic and thermal Enthalpies=            -276.103484
 Sum of electronic and thermal Free Energies=         -276.147427

                     E (Thermal)             CV                S
                      KCal/Mol        Cal/Mol-Kelvin    Cal/Mol-Kelvin
 Total                  143.542             33.704             92.487
 Electronic               0.000              0.000              0.000
 Translational            0.889              2.981             39.722
 Rotational               0.889              2.981             28.259
 Vibrational            141.765             27.742             24.506
 Vibration     1          0.596              1.974              4.526
 Vibration     2          0.608              1.935              3.149
 Vibration     3          0.614              1.918              2.861
 Vibration     4          0.626              1.876              2.404
 Vibration     5          0.651              1.798              1.894
 Vibration     6          0.657              1.781              1.813
 Vibration     7          0.676              1.723              1.576
 Vibration     8          0.703              1.642              1.329
 Vibration     9          0.737              1.548              1.107
 Vibration    10          0.790              1.407              0.862
 Vibration    11          0.824              1.324              0.747

 Optimization completed.
    -- Stationary point found.
 Normal termination of Gaussian 16 at Mon Sep 30 09:35:12 2019.
