 Gaussian 16, Revision A.03,
 Gaussian 16:  EM64L-G16RevA.03 25-Dec-2016

 ----------------------------------------------------------------------
 #p m062x/cc-pVTZ opt=(calcfc,maxcycles=900,Tight) freq IOP(7/33=1,2/16
 =3) scf=(maxcycle=900)
 ----------------------------------------------------------------------

 ------------------------------
 Gaussian input prepared by ASE
 ------------------------------
 Symbolic Z-matrix:
 Charge =  0 Multiplicity = 1

 SCF Done:  E(RM062X) =  -276.321731331     A.U. after   11 cycles
 SCF Done:  E(RM062X) =  -276.332309722     A.U. after   11 cycles
 SCF Done:  E(RM062X) =  -276.313347467     A.U. after   12 cycles
 SCF Done:  E(RM062X) =  -276.336715961     A.U. after   10 cycles
 SCF Done:  E(RM062X) =  -276.338240272     A.U. after   12 cycles
 SCF Done:  E(RM062X) =  -276.338833182     A.U. after    9 cycles
 SCF Done:  E(RM062X) =  -276.339053275     A.U. after    9 cycles
 SCF Done:  E(RM062X) =  -276.339061302     A.U. after    9 cycles
 SCF Done:  E(RM062X) =  -276.339095435     A.U. after    8 cycles
 SCF Done:  E(RM062X) =  -276.339104629     A.U. after    8 cycles
 SCF Done:  E(RM062X) =  -276.339123538     A.U. after    6 cycles
 SCF Done:  E(RM062X) =  -276.339123641     A.U. after    5 cycles
 SCF Done:  E(RM062X) =  -276.339123835     A.U. after    5 cycles
 SCF Done:  E(RM062X) =  -276.339123926     A.U. after    5 cycles
 SCF Done:  E(RM062X) =  -276.339123970     A.U. after    5 cycles
 SCF Done:  E(RM062X) =  -276.339123972     A.U. after    3 cycles
 SCF Done:  E(RM062X) =  -276.339123970     A.U. after    3 cycles
 SCF Done:  E(RM062X) =  -276.339123974     A.U. after    4 cycles
 SCF Done:  E(RM062X) =  -276.339123971     A.U. after    4 cycles
 Optimization completed on the basis of negligible forces.
    -- Stationary point found.
 Normal termination of Gaussian 16 at Sun Sep 29 21:20:20 2019.

 ----------------------------------------------------------------------
 #P Geom=AllCheck Guess=TCheck SCRF=Check Test GenChk RM062X/CC-pVTZ Fr
 eq
 ----------------------------------------------------------------------

 Structure from the checkpoint file:  "/scratch/harms.n/gauss_scrdir/Gau-14152.chk"
 ------------------------------
 Gaussian input prepared by ASE
 ------------------------------
 Charge =  0 Multiplicity = 1

                         Standard orientation:
 ---------------------------------------------------------------------
 Center     Atomic      Atomic             Coordinates (Angstroms)
 Number     Number       Type             X           Y           Z
 ---------------------------------------------------------------------
      1          6           0       -0.781574   -0.242316    0.594919
      2          6           0       -0.050216    0.562297   -0.474448
      3          6           0        1.273875    1.159021    0.003818
      4          6           0       -2.117534   -0.817980    0.128073
      5          6           0        2.285208    0.140570    0.531381
      6          6           0       -3.153856    0.243178   -0.226468
      7          6           0        2.609739   -0.960534   -0.471689
      8          1           0       -2.519052   -1.460112    0.914387
      9          1           0       -1.944584   -1.463645   -0.737431
     10          1           0       -0.947420    0.393174    1.471735
     11          1           0       -0.144357   -1.064862    0.928023
     12          1           0       -0.687875    1.378552   -0.818761
     13          1           0        0.121941   -0.076331   -1.346098
     14          1           0        1.068169    1.893438    0.787161
     15          1           0        1.730058    1.709010   -0.823780
     16          1           0        3.202379    0.669168    0.797898
     17          1           0        1.915074   -0.305543    1.456885
     18          1           0       -2.850441    0.830242   -1.092643
     19          1           0       -4.117118   -0.209873   -0.458979
     20          1           0       -3.300967    0.932148    0.607472
     21          1           0        2.929568   -0.534786   -1.424803
     22          1           0        1.741692   -1.591242   -0.667485
     23          1           0        3.409092   -1.604745   -0.107095
 ---------------------------------------------------------------------

 SCF Done:  E(RM062X) =  -276.339123971     A.U. after    1 cycles

 The electronic state is 1-A.
 Alpha  occ. eigenvalues --  -10.52665 -10.52559 -10.52458 -10.52435 -10.52323
 Alpha  occ. eigenvalues --  -10.51951 -10.51899  -0.91310  -0.87600  -0.81997
 Alpha  occ. eigenvalues --   -0.76594  -0.71640  -0.66347  -0.62758  -0.54646
 Alpha  occ. eigenvalues --   -0.52953  -0.51678  -0.49442  -0.47872  -0.46215
 Alpha  occ. eigenvalues --   -0.44290  -0.43689  -0.42003  -0.39839  -0.39505
 Alpha  occ. eigenvalues --   -0.38762  -0.37294  -0.36629  -0.35962
 Alpha virt. eigenvalues --    0.06561   0.08308   0.08708   0.08974   0.11664
 Alpha virt. eigenvalues --    0.12348   0.12888   0.13849   0.14439   0.14948
 Alpha virt. eigenvalues --    0.15680   0.17215   0.17762   0.18086   0.18857

 Mulliken charges:
               1
     1  C   -0.287633
     2  C   -0.306512
     3  C   -0.285835
     4  C   -0.239430
     5  C   -0.257126
     6  C   -0.364965
     7  C   -0.372696
     8  H    0.126478
     9  H    0.125429
    10  H    0.145222
    11  H    0.147897
    12  H    0.157181
    13  H    0.151069
    14  H    0.138603
    15  H    0.141418
    16  H    0.134013
    17  H    0.137178
    18  H    0.116952
    19  H    0.117968
    20  H    0.114668
    21  H    0.121241
    22  H    0.118930
    23  H    0.119952
 Sum of Mulliken charges =  -0.00000

 Dipole moment (field-independent basis, Debye):
    X=              0.0253    Y=             -0.0058    Z=              0.0552  Tot=              0.0610
 Quadrupole moment (field-independent basis, Debye-Ang):
   XX=            -48.9361   YY=            -48.9116   ZZ=            -48.7408
   XY=              0.3317   XZ=             -0.1768   YZ=             -0.1015

  Exact polarizability:  97.990  -0.463  80.069   0.593   0.293  76.193
 Approx polarizability:  98.185   0.018  96.835   0.029   0.385  97.046

                      1                      2                      3
                      A                      A                      A
 Frequencies --     40.5993                77.7619               124.8415
 Red. masses --      2.5976                 2.4732                 1.8385
 Frc consts  --      0.0025                 0.0088                 0.0169
 IR Inten    --      0.0082                 0.0173                 0.0379

                      4                      5                      6
                      A                      A                      A
 Frequencies --    173.3413               223.3933               250.9097
 Red. masses --      1.4670                 1.6103                 1.7448
 Frc consts  --      0.0260                 0.0473                 0.0647
 IR Inten    --      0.0398                 0.0928                 0.0048

                      7                      8                      9
                      A                      A                      A
 Frequencies --    292.4392               296.4225               357.9596
 Red. masses --      1.3205                 1.6714                 2.0738
 Frc consts  --      0.0665                 0.0865                 0.1566
 IR Inten    --      0.0373                 0.0105                 0.2857

                     10                     11                     12
                      A                      A                      A
 Frequencies --    436.8718               517.3247               722.9111
 Red. masses --      2.1326                 2.2524                 1.1483
 Frc consts  --      0.2398                 0.3552                 0.3536
 IR Inten    --      0.2296                 0.1760                 7.1541

                     13                     14                     15
                      A                      A                      A
 Frequencies --    751.5064               799.5603               848.6679
 Red. masses --      1.2565                 1.2520                 2.3208
 Frc consts  --      0.4181                 0.4716                 0.9848
 IR Inten    --      0.5409                 3.5339                 0.4739

                     16                     17                     18
                      A                      A                      A
 Frequencies --    858.3343               905.7735               956.9704
 Red. masses --      1.4037                 1.8958                 1.6493
 Frc consts  --      0.6093                 0.9164                 0.8899
 IR Inten    --      1.1593                 1.0019                 1.1362

                     19                     20                     21
                      A                      A                      A
 Frequencies --    961.6957              1013.2747              1045.0723
 Red. masses --      1.4625                 1.7061                 1.4161
 Frc consts  --      0.7969                 1.0321                 0.9112
 IR Inten    --      0.3376                 1.3019                 0.1191

                     22                     23                     24
                      A                      A                      A
 Frequencies --   1072.0156              1095.9981              1121.8255
 Red. masses --      1.3103                 2.2188                 2.0270
 Frc consts  --      0.8872                 1.5703                 1.5030
 IR Inten    --      0.2717                 0.3383                 0.0760

                     25                     26                     27
                      A                      A                      A
 Frequencies --   1154.7537              1178.2205              1229.7974
 Red. masses --      1.9629                 2.0883                 1.4460
 Frc consts  --      1.5421                 1.7080                 1.2885
 IR Inten    --      0.6479                 0.5069                 1.6232

                     28                     29                     30
                      A                      A                      A
 Frequencies --   1262.8444              1297.7439              1307.8017
 Red. masses --      1.3599                 1.2540                 1.2194
 Frc consts  --      1.2778                 1.2443                 1.2288
 IR Inten    --      1.2088                 0.3888                 2.2325

                     31                     32                     33
                      A                      A                      A
 Frequencies --   1334.5330              1342.1628              1378.6755
 Red. masses --      1.0920                 1.2445                 1.3605
 Frc consts  --      1.1459                 1.3209                 1.5236
 IR Inten    --      0.3106                 1.5295                 1.9869

                     34                     35                     36
                      A                      A                      A
 Frequencies --   1380.9357              1390.7416              1410.3758
 Red. masses --      1.4120                 1.5260                 1.4719
 Frc consts  --      1.5865                 1.7390                 1.7251
 IR Inten    --      1.2624                 0.4884                 0.7948

                     37                     38                     39
                      A                      A                      A
 Frequencies --   1416.2512              1417.8984              1481.1101
 Red. masses --      1.2983                 1.3613                 1.0709
 Frc consts  --      1.5343                 1.6125                 1.3841
 IR Inten    --      7.2735                 6.3458                 0.2352

                     40                     41                     42
                      A                      A                      A
 Frequencies --   1490.8481              1494.1120              1497.8132
 Red. masses --      1.0762                 1.0705                 1.0605
 Frc consts  --      1.4093                 1.4080                 1.4018
 IR Inten    --      2.7729                 0.7811                 2.3319

                     43                     44                     45
                      A                      A                      A
 Frequencies --   1501.7877              1504.9531              1508.7834
 Red. masses --      1.0702                 1.0628                 1.0593
 Frc consts  --      1.4221                 1.4182                 1.4208
 IR Inten    --      7.9209                 5.6703                 7.3804

                     46                     47                     48
                      A                      A                      A
 Frequencies --   1513.2410              1518.8612              3032.1414
 Red. masses --      1.0623                 1.0774                 1.0656
 Frc consts  --      1.4332                 1.4644                 5.7721
 IR Inten    --      9.7098                 1.6868                 7.4889

                     49                     50                     51
                      A                      A                      A
 Frequencies --   3043.6861              3047.7222              3050.7128
 Red. masses --      1.0611                 1.0637                 1.0614
 Frc consts  --      5.7915                 5.8211                 5.8200
 IR Inten    --     28.9297                10.9163                23.9897

                     52                     53                     54
                      A                      A                      A
 Frequencies --   3056.9340              3060.0556              3061.8205
 Red. masses --      1.0422                 1.0384                 1.0633
 Frc consts  --      5.7380                 5.7287                 5.8730
 IR Inten    --     23.9086                20.3212                20.6143

                     55                     56                     57
                      A                      A                      A
 Frequencies --   3077.9536              3080.4792              3087.2501
 Red. masses --      1.0932                 1.0966                 1.0990
 Frc consts  --      6.1020                 6.1308                 6.1714
 IR Inten    --      6.1428                30.6326                16.3693

                     58                     59                     60
                      A                      A                      A
 Frequencies --   3095.8429              3101.0390              3124.1717
 Red. masses --      1.1014                 1.1010                 1.1019
 Frc consts  --      6.2194                 6.2381                 6.3367
 IR Inten    --     30.1026                73.6120                43.5094

                     61                     62                     63
                      A                      A                      A
 Frequencies --   3127.2536              3132.7603              3138.8299
 Red. masses --      1.1003                 1.1013                 1.1014
 Frc consts  --      6.3398                 6.3683                 6.3936
 IR Inten    --     33.5022                32.7504                35.0126

 - Thermochemistry -
 -------------------
 Temperature   298.150 Kelvin.  Pressure   1.00000 Atm.
 Atom     1 has atomic number  6 and mass  12.00000

 Molecular mass:   100.12520 amu.
 Principal axes and moments of inertia in atomic units:
                           1         2         3
     Eigenvalues --   326.644071653.578671772.09139
           X            0.99998  -0.00668   0.00011
           Y            0.00668   0.99995   0.00699
           Z           -0.00015  -0.00698   0.99998
 This molecule is an asymmetric top.
 Rotational symmetry number  1.
 Rotational temperatures (Kelvin)      0.26516     0.05238     0.04888
 Rotational constants (GHZ):           5.52510     1.09142     1.01842
 Zero-point vibrational energy     575872.5 (Joules/Mol)
                                  137.63684 (Kcal/Mol)
 Warning -- explicit consideration of  11 degrees of freedom as
           vibrations may cause significant error
 Vibrational temperatures:     58.41   111.88   179.62   249.40   321.41
          (Kelvin)            361.00   420.75   426.49   515.02   628.56
                              744.31  1040.11  1081.25  1150.39  1221.04
                             1234.95  1303.21  1376.87  1383.67  1457.88
                             1503.63  1542.39  1576.90  1614.06  1661.43
                             1695.20  1769.40  1816.95  1867.16  1881.63
                             1920.10  1931.07  1983.61  1986.86  2000.97
                             2029.22  2037.67  2040.04  2130.99  2145.00
                             2149.69  2155.02  2160.74  2165.29  2170.80
                             2177.22  2185.30  4362.58  4379.19  4384.99
                             4389.30  4398.25  4402.74  4405.28  4428.49
                             4432.12  4441.86  4454.23  4461.70  4494.99
                             4499.42  4507.34  4516.08

 Zero-point correction=                           0.219338 (Hartree/Particle)
 Thermal correction to Energy=                    0.228681
 Thermal correction to Enthalpy=                  0.229626
 Thermal correction to Gibbs Free Energy=         0.184928
 Sum of electronic and zero-point Energies=           -276.119786
 Sum of electronic and thermal Energies=              -276.110443
 Sum of electronic and thermal Enthalpies=            -276.109498
 Sum of electronic and thermal Free Energies=         -276.154196

                     E (Thermal)             CV                S
                      KCal/Mol        Cal/Mol-Kelvin    Cal/Mol-Kelvin
 Total                  143.500             33.668             94.073
 Electronic               0.000              0.000              0.000
 Translational            0.889              2.981             39.722
 Rotational               0.889              2.981             28.350
 Vibrational            141.722             27.707             26.001
 Vibration     1          0.594              1.981              5.230
 Vibration     2          0.599              1.964              3.947
 Vibration     3          0.610              1.928              3.024
 Vibration     4          0.627              1.875              2.399
 Vibration     5          0.649              1.805              1.931
 Vibration     6          0.663              1.761              1.724
 Vibration     7          0.688              1.688              1.460
 Vibration     8          0.690              1.680              1.437
 Vibration     9          0.733              1.559              1.131
 Vibration    10          0.797              1.390              0.836
 Vibration    11          0.872              1.212              0.616

 Optimization completed on the basis of negligible forces.
    -- Stationary point found.
 Normal termination of Gaussian 16 at Mon Sep 30 00:03:15 2019.
