 Gaussian 16, Revision A.03,
 Gaussian 16:  EM64L-G16RevA.03 25-Dec-2016

 ----------------------------------------------------------------------
 #p m062x/cc-pVTZ opt=(calcfc,maxcycles=900,Tight) freq IOP(7/33=1,2/16
 =3) scf=(maxcycle=900)
 ----------------------------------------------------------------------

 ------------------------------
 Gaussian input prepared by ASE
 ------------------------------
 Symbolic Z-matrix:
 Charge =  0 Multiplicity = 1

 SCF Done:  E(RM062X) =  -276.310384258     A.U. after   11 cycles

  Exact polarizability:   0.000   0.000   0.000   0.000   0.000   0.000
 Approx polarizability: 100.829   0.361  98.943   0.019   0.184  97.910

 SCF Done:  E(RM062X) =  -276.313672435     A.U. after   10 cycles
 SCF Done:  E(RM062X) =  -276.290535592     A.U. after   11 cycles
 SCF Done:  E(RM062X) =  -276.325853368     A.U. after   11 cycles
 SCF Done:  E(RM062X) =  -276.325829954     A.U. after   10 cycles
 SCF Done:  E(RM062X) =  -276.326219180     A.U. after   10 cycles
 SCF Done:  E(RM062X) =  -276.329144939     A.U. after   10 cycles
 SCF Done:  E(RM062X) =  -276.331198819     A.U. after   10 cycles
 SCF Done:  E(RM062X) =  -276.332031774     A.U. after   10 cycles
 SCF Done:  E(RM062X) =  -276.333646914     A.U. after   10 cycles
 SCF Done:  E(RM062X) =  -276.339357722     A.U. after   10 cycles
 SCF Done:  E(RM062X) =  -276.339566618     A.U. after    9 cycles
 SCF Done:  E(RM062X) =  -276.339573279     A.U. after    7 cycles
 SCF Done:  E(RM062X) =  -276.339574115     A.U. after    6 cycles
 SCF Done:  E(RM062X) =  -276.339574246     A.U. after    6 cycles
 SCF Done:  E(RM062X) =  -276.339574258     A.U. after    5 cycles
 SCF Done:  E(RM062X) =  -276.339574256     A.U. after    4 cycles
 SCF Done:  E(RM062X) =  -276.339574256     A.U. after    3 cycles
 SCF Done:  E(RM062X) =  -276.339574256     A.U. after    3 cycles
 Optimization completed.
    -- Stationary point found.

 The electronic state is 1-A.
 Alpha  occ. eigenvalues --  -10.52656 -10.52567 -10.52456 -10.52449 -10.52333
 Alpha  occ. eigenvalues --  -10.51945 -10.51931  -0.91362  -0.87609  -0.81989
 Alpha  occ. eigenvalues --   -0.76505  -0.71679  -0.66446  -0.62650  -0.54603
 Alpha  occ. eigenvalues --   -0.53336  -0.51060  -0.50258  -0.47044  -0.46455
 Alpha  occ. eigenvalues --   -0.44426  -0.43383  -0.42425  -0.39631  -0.39550
 Alpha  occ. eigenvalues --   -0.38936  -0.37011  -0.36654  -0.36130
 Alpha virt. eigenvalues --    0.06418   0.08265   0.08723   0.08978   0.11959
 Alpha virt. eigenvalues --    0.12362   0.12620   0.13676   0.14092   0.15312
 Alpha virt. eigenvalues --    0.16243   0.16417   0.17506   0.17959   0.19368

 Mulliken charges:
               1
     1  C   -0.290277
     2  C   -0.298099
     3  C   -0.282890
     4  C   -0.255994
     5  C   -0.242196
     6  C   -0.370890
     7  C   -0.373111
     8  H    0.139360
     9  H    0.133885
    10  H    0.138121
    11  H    0.140944
    12  H    0.153896
    13  H    0.149267
    14  H    0.143912
    15  H    0.145992
    16  H    0.126101
    17  H    0.124893
    18  H    0.120802
    19  H    0.120626
    20  H    0.116312
    21  H    0.117064
    22  H    0.121769
    23  H    0.120512
 Sum of Mulliken charges =  -0.00000

 Dipole moment (field-independent basis, Debye):
    X=              0.0073    Y=              0.0991    Z=              0.0487  Tot=              0.1107
 Quadrupole moment (field-independent basis, Debye-Ang):
   XX=            -48.6698   YY=            -49.1149   ZZ=            -48.7110
   XY=             -0.1553   XZ=             -0.2040   YZ=             -0.2627

 Normal termination of Gaussian 16 at Mon Sep 30 10:53:39 2019.

 ----------------------------------------------------------------------
 #P Geom=AllCheck Guess=TCheck SCRF=Check Test GenChk RM062X/CC-pVTZ Fr
 eq
 ----------------------------------------------------------------------

 Structure from the checkpoint file:  "/scratch/harms.n/gauss_scrdir/Gau-30813.chk"
 ------------------------------
 Gaussian input prepared by ASE
 ------------------------------
 Charge =  0 Multiplicity = 1

                         Standard orientation:
 ---------------------------------------------------------------------
 Center     Atomic      Atomic             Coordinates (Angstroms)
 Number     Number       Type             X           Y           Z
 ---------------------------------------------------------------------
      1          6           0        1.441100    1.023037   -0.461359
      2          6           0       -0.018722    0.624810   -0.676035
      3          6           0       -0.819232    0.531904    0.619588
      4          6           0        2.219274    0.091653    0.468964
      5          6           0       -2.317784    0.336421    0.400931
      6          6           0        2.203572   -1.363588    0.014531
      7          6           0       -2.655278   -0.960509   -0.327135
      8          1           0        1.817282    0.162026    1.482109
      9          1           0        3.251612    0.441358    0.528281
     10          1           0        1.476739    2.038606   -0.058150
     11          1           0        1.946253    1.055227   -1.430496
     12          1           0       -0.061097   -0.328707   -1.206854
     13          1           0       -0.493721    1.358737   -1.333541
     14          1           0       -0.653494    1.442350    1.203187
     15          1           0       -0.441648   -0.295834    1.227760
     16          1           0       -2.822954    0.347654    1.368648
     17          1           0       -2.712355    1.185428   -0.163730
     18          1           0        2.551172   -1.451720   -1.016663
     19          1           0        2.848611   -1.980090    0.639633
     20          1           0        1.198778   -1.785887    0.060650
     21          1           0       -2.214781   -1.817060    0.187501
     22          1           0       -2.275768   -0.956489   -1.348621
     23          1           0       -3.732213   -1.117968   -0.376630
 ---------------------------------------------------------------------

 SCF Done:  E(RM062X) =  -276.339574256     A.U. after    1 cycles
