 Gaussian 16, Revision A.03,
 Gaussian 16:  EM64L-G16RevA.03 25-Dec-2016

 ----------------------------------------------------------------------
 #p m062x/cc-pVTZ opt=(calcfc,maxcycles=900,Tight) freq IOP(7/33=1,2/16
 =3) scf=(maxcycle=900)
 ----------------------------------------------------------------------

 ------------------------------
 Gaussian input prepared by ASE
 ------------------------------
 Symbolic Z-matrix:
 Charge =  0 Multiplicity = 1

 SCF Done:  E(RM062X) =  -276.324224432     A.U. after   11 cycles
 SCF Done:  E(RM062X) =  -276.326156200     A.U. after   10 cycles
 SCF Done:  E(RM062X) =  -276.324764704     A.U. after   10 cycles
 SCF Done:  E(RM062X) =  -276.335352616     A.U. after   11 cycles
 SCF Done:  E(RM062X) =  -276.336232866     A.U. after   12 cycles
 SCF Done:  E(RM062X) =  -276.316840451     A.U. after   11 cycles
 SCF Done:  E(RM062X) =  -276.278584140     A.U. after   11 cycles
 SCF Done:  E(RM062X) =  -276.298240248     A.U. after   10 cycles
 SCF Done:  E(RM062X) =  -276.336236536     A.U. after    6 cycles
 SCF Done:  E(RM062X) =  -276.336509525     A.U. after    9 cycles
 SCF Done:  E(RM062X) =  -276.337391357     A.U. after    9 cycles
 SCF Done:  E(RM062X) =  -276.337444001     A.U. after    9 cycles
 SCF Done:  E(RM062X) =  -276.337438461     A.U. after    8 cycles
 SCF Done:  E(RM062X) =  -276.337444579     A.U. after    8 cycles
 SCF Done:  E(RM062X) =  -276.337444561     A.U. after    6 cycles
 SCF Done:  E(RM062X) =  -276.337444620     A.U. after    6 cycles
 SCF Done:  E(RM062X) =  -276.337444619     A.U. after    4 cycles
 SCF Done:  E(RM062X) =  -276.337444619     A.U. after    4 cycles
 SCF Done:  E(RM062X) =  -276.337444619     A.U. after    2 cycles
 Optimization completed.
    -- Stationary point found.
 Normal termination of Gaussian 16 at Mon Sep 30 02:34:38 2019.

 ----------------------------------------------------------------------
 #P Geom=AllCheck Guess=TCheck SCRF=Check Test GenChk RM062X/CC-pVTZ Fr
 eq
 ----------------------------------------------------------------------

 Structure from the checkpoint file:  "/scratch/harms.n/gauss_scrdir/Gau-17168.chk"
 ------------------------------
 Gaussian input prepared by ASE
 ------------------------------
 Charge =  0 Multiplicity = 1

                         Standard orientation:
 ---------------------------------------------------------------------
 Center     Atomic      Atomic             Coordinates (Angstroms)
 Number     Number       Type             X           Y           Z
 ---------------------------------------------------------------------
      1          6           0       -1.180251    0.766490    0.407427
      2          6           0        0.015473    1.489864   -0.227668
      3          6           0        1.376916    0.909836    0.154046
      4          6           0       -1.823660   -0.285846   -0.492681
      5          6           0        1.575822   -0.557147   -0.210100
      6          6           0       -2.952677   -1.033068    0.204750
      7          6           0        2.982299   -1.043208    0.117070
      8          1           0       -1.068380   -0.994896   -0.836543
      9          1           0       -2.206346    0.208607   -1.389276
     10          1           0       -1.950761    1.491453    0.680321
     11          1           0       -0.865518    0.296727    1.345570
     12          1           0        0.003184    2.542281    0.060081
     13          1           0       -0.092296    1.471130   -1.316776
     14          1           0        1.522304    1.025957    1.232972
     15          1           0        2.163320    1.499918   -0.324981
     16          1           0        0.847354   -1.170575    0.325438
     17          1           0        1.373695   -0.696043   -1.275995
     18          1           0       -2.580775   -1.565766    1.081471
     19          1           0       -3.724662   -0.340298    0.543674
     20          1           0       -3.422565   -1.761656   -0.455149
     21          1           0        3.194170   -0.924712    1.180876
     22          1           0        3.728932   -0.468903   -0.433337
     23          1           0        3.114817   -2.094742   -0.135409
 ---------------------------------------------------------------------

 SCF Done:  E(RM062X) =  -276.337444619     A.U. after    1 cycles

 The electronic state is 1-A.
 Alpha  occ. eigenvalues --  -10.52656 -10.52539 -10.52504 -10.52471 -10.52439
 Alpha  occ. eigenvalues --  -10.51973 -10.51914  -0.91224  -0.87567  -0.82703
 Alpha  occ. eigenvalues --   -0.76214  -0.70531  -0.66286  -0.64449  -0.54783
 Alpha  occ. eigenvalues --   -0.52861  -0.50366  -0.49163  -0.48757  -0.45740
 Alpha  occ. eigenvalues --   -0.45190  -0.42985  -0.41862  -0.40490  -0.39139
 Alpha  occ. eigenvalues --   -0.38833  -0.37579  -0.36330  -0.36203
 Alpha virt. eigenvalues --    0.06838   0.08092   0.08616   0.09066   0.11270
 Alpha virt. eigenvalues --    0.12259   0.13229   0.13451   0.14730   0.15741
 Alpha virt. eigenvalues --    0.15789   0.16751   0.17755   0.18233   0.18852

 Mulliken charges:
               1
     1  C   -0.278431
     2  C   -0.272300
     3  C   -0.247293
     4  C   -0.251702
     5  C   -0.257801
     6  C   -0.351427
     7  C   -0.362242
     8  H    0.146949
     9  H    0.127962
    10  H    0.137047
    11  H    0.138573
    12  H    0.133824
    13  H    0.134193
    14  H    0.134488
    15  H    0.132070
    16  H    0.133159
    17  H    0.135771
    18  H    0.109564
    19  H    0.109822
    20  H    0.113991
    21  H    0.109421
    22  H    0.110250
    23  H    0.114111
 Sum of Mulliken charges =  -0.00000

 Dipole moment (field-independent basis, Debye):
    X=              0.0007    Y=              0.0475    Z=             -0.0594  Tot=              0.0760
 Quadrupole moment (field-independent basis, Debye-Ang):
   XX=            -49.6775   YY=            -48.7077   ZZ=            -48.6659
   XY=             -0.2407   XZ=              0.0626   YZ=              0.0207

  Exact polarizability:  97.441   0.567  83.360   0.049   0.142  75.314
 Approx polarizability:  98.229   0.195  96.898   0.067  -0.060  97.321

                      1                      2                      3
                      A                      A                      A
 Frequencies --     62.2959                96.7712               133.4308
 Red. masses --      2.2156                 1.9819                 1.5306
 Frc consts  --      0.0051                 0.0109                 0.0161
 IR Inten    --      0.0091                 0.0297                 0.0018

                      4                      5                      6
                      A                      A                      A
 Frequencies --    147.6799               217.0579               248.4342
 Red. masses --      2.2914                 2.4375                 1.1791
 Frc consts  --      0.0294                 0.0677                 0.0429
 IR Inten    --      0.0111                 0.0820                 0.0067

                      7                      8                      9
                      A                      A                      A
 Frequencies --    251.0194               284.4590               319.3145
 Red. masses --      1.1549                 1.9258                 2.2838
 Frc consts  --      0.0429                 0.0918                 0.1372
 IR Inten    --      0.0115                 0.0326                 0.0245

                     10                     11                     12
                      A                      A                      A
 Frequencies --    425.5170               498.4826               733.4882
 Red. masses --      2.8345                 2.0480                 1.1288
 Frc consts  --      0.3024                 0.2998                 0.3578
 IR Inten    --      0.0314                 0.1164                 3.7172

                     13                     14                     15
                      A                      A                      A
 Frequencies --    753.5924               796.4035               858.9013
 Red. masses --      1.1305                 1.6424                 1.3427
 Frc consts  --      0.3783                 0.6138                 0.5836
 IR Inten    --      2.5147                 0.2017                 0.0621

                     16                     17                     18
                      A                      A                      A
 Frequencies --    877.4945               893.4152               951.0622
 Red. masses --      1.4218                 1.7840                 1.3058
 Frc consts  --      0.6450                 0.8390                 0.6959
 IR Inten    --      0.1409                 0.3259                 4.8702

                     19                     20                     21
                      A                      A                      A
 Frequencies --    977.5656              1043.1722              1064.5053
 Red. masses --      1.9991                 2.0869                 1.4592
 Frc consts  --      1.1256                 1.3380                 0.9742
 IR Inten    --      1.7547                 0.8325                 0.2364

                     22                     23                     24
                      A                      A                      A
 Frequencies --   1076.3482              1082.0596              1117.8507
 Red. masses --      2.3987                 1.5031                 2.0943
 Frc consts  --      1.6373                 1.0369                 1.5419
 IR Inten    --      0.3013                 0.3212                 0.4531

                     25                     26                     27
                      A                      A                      A
 Frequencies --   1161.3520              1186.6327              1245.1606
 Red. masses --      2.1608                 2.0145                 1.3849
 Frc consts  --      1.7171                 1.6713                 1.2651
 IR Inten    --      0.0823                 0.4189                 0.6384

                     28                     29                     30
                      A                      A                      A
 Frequencies --   1262.9537              1289.3413              1324.2989
 Red. masses --      1.3315                 1.2698                 1.2362
 Frc consts  --      1.2514                 1.2438                 1.2774
 IR Inten    --      0.1045                 1.2542                 0.0496

                     31                     32                     33
                      A                      A                      A
 Frequencies --   1331.5408              1336.3898              1338.1630
 Red. masses --      1.2064                 1.1236                 1.1936
 Frc consts  --      1.2602                 1.1823                 1.2593
 IR Inten    --      1.1615                 0.0469                 0.6262

                     34                     35                     36
                      A                      A                      A
 Frequencies --   1381.3447              1398.3938              1408.3019
 Red. masses --      1.4189                 1.6225                 1.5833
 Frc consts  --      1.5952                 1.8693                 1.8502
 IR Inten    --      1.9655                 0.2916                 0.3285

                     37                     38                     39
                      A                      A                      A
 Frequencies --   1412.9608              1413.9150              1485.5058
 Red. masses --      1.2810                 1.2508                 1.0790
 Frc consts  --      1.5069                 1.4733                 1.4028
 IR Inten    --      3.8219                 2.3464                 1.6438

                     40                     41                     42
                      A                      A                      A
 Frequencies --   1492.3261              1497.4104              1499.6283
 Red. masses --      1.0626                 1.0714                 1.0828
 Frc consts  --      1.3943                 1.4155                 1.4347
 IR Inten    --      1.6376                 4.3247                 0.7378

                     43                     44                     45
                      A                      A                      A
 Frequencies --   1500.2668              1503.2038              1504.4628
 Red. masses --      1.0569                 1.0401                 1.0395
 Frc consts  --      1.4015                 1.3847                 1.3862
 IR Inten    --      1.4529                 6.8138                 8.5591

                     46                     47                     48
                      A                      A                      A
 Frequencies --   1512.2791              1517.3117              3033.6420
 Red. masses --      1.0820                 1.0922                 1.0631
 Frc consts  --      1.4580                 1.4816                 5.7646
 IR Inten    --     10.8638                 2.8471                10.2730

                     49                     50                     51
                      A                      A                      A
 Frequencies --   3033.9819              3042.5527              3048.4052
 Red. masses --      1.0633                 1.0655                 1.0606
 Frc consts  --      5.7665                 5.8113                 5.8069
 IR Inten    --      5.6942                16.0201                35.8803

                     52                     53                     54
                      A                      A                      A
 Frequencies --   3054.8008              3057.4113              3058.5435
 Red. masses --      1.0449                 1.0373                 1.0569
 Frc consts  --      5.7451                 5.7127                 5.8252
 IR Inten    --     11.6439                41.0929                44.7559

                     55                     56                     57
                      A                      A                      A
 Frequencies --   3066.7975              3074.0437              3089.3636
 Red. masses --      1.0977                 1.0947                 1.1009
 Frc consts  --      6.0827                 6.0951                 6.1908
 IR Inten    --      9.6372                25.1278                27.7757

                     58                     59                     60
                      A                      A                      A
 Frequencies --   3095.1326              3100.1474              3124.3690
 Red. masses --      1.1007                 1.0983                 1.1027
 Frc consts  --      6.2124                 6.2192                 6.3423
 IR Inten    --     33.0717                23.0250                40.9296

                     61                     62                     63
                      A                      A                      A
 Frequencies --   3125.0313              3132.3563              3133.5194
 Red. masses --      1.1027                 1.1013                 1.1015
 Frc consts  --      6.3445                 6.3665                 6.3725
 IR Inten    --     56.3915                23.2429                34.9977

 - Thermochemistry -
 -------------------
 Temperature   298.150 Kelvin.  Pressure   1.00000 Atm.
 Atom     1 has atomic number  6 and mass  12.00000

 Molecular mass:   100.12520 amu.
 Principal axes and moments of inertia in atomic units:
                           1         2         3
     Eigenvalues --   439.385041527.765151821.56011
           X            1.00000   0.00090  -0.00061
           Y           -0.00090   1.00000  -0.00276
           Z            0.00061   0.00277   1.00000
 This molecule is an asymmetric top.
 Rotational symmetry number  1.
 Warning -- assumption of classical behavior for rotation
           may cause significant error
 Rotational temperatures (Kelvin)      0.19713     0.05669     0.04755
 Rotational constants (GHZ):           4.10743     1.18129     0.99077
 Zero-point vibrational energy     575305.5 (Joules/Mol)
                                  137.50131 (Kcal/Mol)
 Warning -- explicit consideration of  11 degrees of freedom as
           vibrations may cause significant error
 Vibrational temperatures:     89.63   139.23   191.98   212.48   312.30
          (Kelvin)            357.44   361.16   409.27   459.42   612.22
                              717.21  1055.33  1084.25  1145.85  1235.77
                             1262.52  1285.43  1368.37  1406.50  1500.89
                             1531.59  1548.62  1556.84  1608.34  1670.93
                             1707.30  1791.51  1817.11  1855.07  1905.37
                             1915.79  1922.77  1925.32  1987.45  2011.98
                             2026.23  2032.94  2034.31  2137.31  2147.12
                             2154.44  2157.63  2158.55  2162.77  2164.59
                             2175.83  2183.07  4364.73  4365.22  4377.55
                             4385.98  4395.18  4398.93  4400.56  4412.44
                             4422.86  4444.91  4453.21  4460.42  4495.27
                             4496.22  4506.76  4508.44

 Zero-point correction=                           0.219122 (Hartree/Particle)
 Thermal correction to Energy=                    0.228547
 Thermal correction to Enthalpy=                  0.229492
 Thermal correction to Gibbs Free Energy=         0.184903
 Sum of electronic and zero-point Energies=           -276.118322
 Sum of electronic and thermal Energies=              -276.108897
 Sum of electronic and thermal Enthalpies=            -276.107953
 Sum of electronic and thermal Free Energies=         -276.152541

                     E (Thermal)             CV                S
                      KCal/Mol        Cal/Mol-Kelvin    Cal/Mol-Kelvin
 Total                  143.416             33.826             93.844
 Electronic               0.000              0.000              0.000
 Translational            0.889              2.981             39.722
 Rotational               0.889              2.981             28.593
 Vibrational            141.638             27.865             25.529
 Vibration     1          0.597              1.972              4.383
 Vibration     2          0.603              1.951              3.518
 Vibration     3          0.613              1.920              2.896
 Vibration     4          0.617              1.905              2.702
 Vibration     5          0.646              1.815              1.983
 Vibration     6          0.662              1.765              1.742
 Vibration     7          0.663              1.761              1.723
 Vibration     8          0.683              1.702              1.507
 Vibration     9          0.705              1.637              1.314
 Vibration    10          0.787              1.415              0.873
 Vibration    11          0.854              1.253              0.662

 Optimization completed.
    -- Stationary point found.
 Normal termination of Gaussian 16 at Mon Sep 30 05:39:08 2019.
