 Gaussian 16, Revision A.03,
 Gaussian 16:  EM64L-G16RevA.03 25-Dec-2016

 ----------------------------------------------------------------------
 #p m062x/cc-pVTZ opt=(calcfc,maxcycles=900,Tight) freq IOP(7/33=1,2/16
 =3) scf=(maxcycle=900)
 ----------------------------------------------------------------------

 ------------------------------
 Gaussian input prepared by ASE
 ------------------------------
 Symbolic Z-matrix:
 Charge =  0 Multiplicity = 1

 SCF Done:  E(RM062X) =  -276.329519152     A.U. after   11 cycles
 SCF Done:  E(RM062X) =  -276.337333450     A.U. after   10 cycles
 SCF Done:  E(RM062X) =  -276.332389498     A.U. after   12 cycles
 SCF Done:  E(RM062X) =  -276.310421553     A.U. after   11 cycles
 SCF Done:  E(RM062X) =  -276.314855040     A.U. after   11 cycles
 SCF Done:  E(RM062X) =  -276.337395431     A.U. after    6 cycles
 SCF Done:  E(RM062X) =  -276.338857213     A.U. after   10 cycles
 SCF Done:  E(RM062X) =  -276.339055669     A.U. after    9 cycles
 SCF Done:  E(RM062X) =  -276.339109242     A.U. after    8 cycles
 SCF Done:  E(RM062X) =  -276.339118219     A.U. after    8 cycles
 SCF Done:  E(RM062X) =  -276.339123497     A.U. after    8 cycles
 SCF Done:  E(RM062X) =  -276.339123950     A.U. after    6 cycles
 SCF Done:  E(RM062X) =  -276.339123967     A.U. after    5 cycles
 SCF Done:  E(RM062X) =  -276.339123971     A.U. after    4 cycles
 SCF Done:  E(RM062X) =  -276.339123970     A.U. after    3 cycles
 SCF Done:  E(RM062X) =  -276.339123972     A.U. after    2 cycles
 Optimization completed.
    -- Stationary point found.
 Normal termination of Gaussian 16 at Sun Sep 29 19:55:19 2019.

 ----------------------------------------------------------------------
 #P Geom=AllCheck Guess=TCheck SCRF=Check Test GenChk RM062X/CC-pVTZ Fr
 eq
 ----------------------------------------------------------------------

 Structure from the checkpoint file:  "/scratch/harms.n/gauss_scrdir/Gau-40335.chk"
 ------------------------------
 Gaussian input prepared by ASE
 ------------------------------
 Charge =  0 Multiplicity = 1

                         Standard orientation:
 ---------------------------------------------------------------------
 Center     Atomic      Atomic             Coordinates (Angstroms)
 Number     Number       Type             X           Y           Z
 ---------------------------------------------------------------------
      1          6           0        1.273882    1.159024    0.003823
      2          6           0       -0.050223    0.562317   -0.474427
      3          6           0       -0.781573   -0.242296    0.594945
      4          6           0        2.285213    0.140559    0.531366
      5          6           0       -2.117526   -0.817979    0.128102
      6          6           0        2.609708   -0.960551   -0.471708
      7          6           0       -3.153839    0.243164   -0.226508
      8          1           0        1.915092   -0.305546    1.456878
      9          1           0        3.202396    0.669146    0.797864
     10          1           0        1.068197    1.893440    0.787171
     11          1           0        1.730059    1.709012   -0.823780
     12          1           0        0.121913   -0.076305   -1.346085
     13          1           0       -0.687878    1.378582   -0.818721
     14          1           0       -0.947428    0.393198    1.471756
     15          1           0       -0.144348   -1.064833    0.928057
     16          1           0       -1.944561   -1.463685   -0.737369
     17          1           0       -2.519058   -1.460074    0.914438
     18          1           0        1.741648   -1.591247   -0.667486
     19          1           0        2.929525   -0.534810   -1.424829
     20          1           0        3.409060   -1.604773   -0.107128
     21          1           0       -2.850420    0.830168   -1.092723
     22          1           0       -3.300942    0.932192    0.607387
     23          1           0       -4.117106   -0.209893   -0.458986
 ---------------------------------------------------------------------

 SCF Done:  E(RM062X) =  -276.339123972     A.U. after    1 cycles

 The electronic state is 1-A.
 Alpha  occ. eigenvalues --  -10.52665 -10.52559 -10.52458 -10.52435 -10.52323
 Alpha  occ. eigenvalues --  -10.51951 -10.51899  -0.91310  -0.87600  -0.81997
 Alpha  occ. eigenvalues --   -0.76594  -0.71640  -0.66347  -0.62758  -0.54646
 Alpha  occ. eigenvalues --   -0.52953  -0.51678  -0.49442  -0.47872  -0.46215
 Alpha  occ. eigenvalues --   -0.44290  -0.43689  -0.42003  -0.39839  -0.39505
 Alpha  occ. eigenvalues --   -0.38762  -0.37294  -0.36629  -0.35962
 Alpha virt. eigenvalues --    0.06561   0.08308   0.08708   0.08974   0.11664
 Alpha virt. eigenvalues --    0.12348   0.12888   0.13849   0.14439   0.14948
 Alpha virt. eigenvalues --    0.15680   0.17215   0.17763   0.18086   0.18857

 Mulliken charges:
               1
     1  C   -0.285836
     2  C   -0.306511
     3  C   -0.287637
     4  C   -0.257126
     5  C   -0.239429
     6  C   -0.372696
     7  C   -0.364968
     8  H    0.137177
     9  H    0.134012
    10  H    0.138602
    11  H    0.141418
    12  H    0.151069
    13  H    0.157181
    14  H    0.145223
    15  H    0.147898
    16  H    0.125430
    17  H    0.126478
    18  H    0.118930
    19  H    0.121241
    20  H    0.119952
    21  H    0.116953
    22  H    0.114669
    23  H    0.117969
 Sum of Mulliken charges =  -0.00000

 Dipole moment (field-independent basis, Debye):
    X=              0.0253    Y=             -0.0058    Z=              0.0552  Tot=              0.0610
 Quadrupole moment (field-independent basis, Debye-Ang):
   XX=            -48.9361   YY=            -48.9116   ZZ=            -48.7408
   XY=              0.3317   XZ=             -0.1768   YZ=             -0.1015

  Exact polarizability:  97.990  -0.463  80.069   0.593   0.293  76.193
 Approx polarizability:  98.185   0.018  96.835   0.029   0.385  97.046

                      1                      2                      3
                      A                      A                      A
 Frequencies --     40.6081                77.7611               124.8450
 Red. masses --      2.5976                 2.4732                 1.8386
 Frc consts  --      0.0025                 0.0088                 0.0169
 IR Inten    --      0.0082                 0.0173                 0.0379

                      4                      5                      6
                      A                      A                      A
 Frequencies --    173.3448               223.3928               250.9166
 Red. masses --      1.4669                 1.6105                 1.7447
 Frc consts  --      0.0260                 0.0474                 0.0647
 IR Inten    --      0.0398                 0.0928                 0.0048

                      7                      8                      9
                      A                      A                      A
 Frequencies --    292.4384               296.4200               357.9579
 Red. masses --      1.3205                 1.6713                 2.0738
 Frc consts  --      0.0665                 0.0865                 0.1566
 IR Inten    --      0.0372                 0.0105                 0.2857

                     10                     11                     12
                      A                      A                      A
 Frequencies --    436.8746               517.3257               722.9101
 Red. masses --      2.1326                 2.2524                 1.1483
 Frc consts  --      0.2398                 0.3552                 0.3536
 IR Inten    --      0.2297                 0.1760                 7.1540

                     13                     14                     15
                      A                      A                      A
 Frequencies --    751.5057               799.5615               848.6679
 Red. masses --      1.2565                 1.2520                 2.3207
 Frc consts  --      0.4181                 0.4716                 0.9848
 IR Inten    --      0.5409                 3.5338                 0.4739

                     16                     17                     18
                      A                      A                      A
 Frequencies --    858.3341               905.7730               956.9710
 Red. masses --      1.4038                 1.8958                 1.6493
 Frc consts  --      0.6093                 0.9164                 0.8899
 IR Inten    --      1.1594                 1.0018                 1.1362

                     19                     20                     21
                      A                      A                      A
 Frequencies --    961.6957              1013.2750              1045.0724
 Red. masses --      1.4624                 1.7061                 1.4161
 Frc consts  --      0.7969                 1.0321                 0.9112
 IR Inten    --      0.3376                 1.3019                 0.1191

                     22                     23                     24
                      A                      A                      A
 Frequencies --   1072.0157              1095.9981              1121.8264
 Red. masses --      1.3103                 2.2188                 2.0270
 Frc consts  --      0.8872                 1.5703                 1.5030
 IR Inten    --      0.2717                 0.3384                 0.0760

                     25                     26                     27
                      A                      A                      A
 Frequencies --   1154.7537              1178.2207              1229.7985
 Red. masses --      1.9629                 2.0883                 1.4460
 Frc consts  --      1.5421                 1.7080                 1.2885
 IR Inten    --      0.6478                 0.5069                 1.6232

                     28                     29                     30
                      A                      A                      A
 Frequencies --   1262.8441              1297.7450              1307.8011
 Red. masses --      1.3599                 1.2540                 1.2194
 Frc consts  --      1.2778                 1.2443                 1.2288
 IR Inten    --      1.2089                 0.3888                 2.2324

                     31                     32                     33
                      A                      A                      A
 Frequencies --   1334.5325              1342.1630              1378.6755
 Red. masses --      1.0920                 1.2445                 1.3605
 Frc consts  --      1.1459                 1.3209                 1.5236
 IR Inten    --      0.3107                 1.5295                 1.9867

                     34                     35                     36
                      A                      A                      A
 Frequencies --   1380.9364              1390.7422              1410.3762
 Red. masses --      1.4120                 1.5260                 1.4720
 Frc consts  --      1.5865                 1.7390                 1.7251
 IR Inten    --      1.2625                 0.4885                 0.7945

                     37                     38                     39
                      A                      A                      A
 Frequencies --   1416.2506              1417.9001              1481.1102
 Red. masses --      1.2983                 1.3613                 1.0709
 Frc consts  --      1.5343                 1.6125                 1.3841
 IR Inten    --      7.2752                 6.3442                 0.2352

                     40                     41                     42
                      A                      A                      A
 Frequencies --   1490.8478              1494.1128              1497.8129
 Red. masses --      1.0762                 1.0705                 1.0605
 Frc consts  --      1.4093                 1.4080                 1.4018
 IR Inten    --      2.7728                 0.7813                 2.3319

                     43                     44                     45
                      A                      A                      A
 Frequencies --   1501.7881              1504.9535              1508.7838
 Red. masses --      1.0702                 1.0628                 1.0593
 Frc consts  --      1.4221                 1.4182                 1.4208
 IR Inten    --      7.9230                 5.6683                 7.3823

                     46                     47                     48
                      A                      A                      A
 Frequencies --   1513.2433              1518.8611              3032.1414
 Red. masses --      1.0623                 1.0774                 1.0656
 Frc consts  --      1.4332                 1.4644                 5.7721
 IR Inten    --      9.7080                 1.6867                 7.4883

                     49                     50                     51
                      A                      A                      A
 Frequencies --   3043.6862              3047.7211              3050.7120
 Red. masses --      1.0611                 1.0637                 1.0614
 Frc consts  --      5.7915                 5.8211                 5.8200
 IR Inten    --     28.9301                10.9176                23.9906

                     52                     53                     54
                      A                      A                      A
 Frequencies --   3056.9340              3060.0551              3061.8211
 Red. masses --      1.0422                 1.0384                 1.0633
 Frc consts  --      5.7380                 5.7287                 5.8731
 IR Inten    --     23.9087                20.3220                20.6131

                     55                     56                     57
                      A                      A                      A
 Frequencies --   3077.9535              3080.4789              3087.2485
 Red. masses --      1.0932                 1.0966                 1.0990
 Frc consts  --      6.1020                 6.1308                 6.1714
 IR Inten    --      6.1423                30.6321                16.3700

                     58                     59                     60
                      A                      A                      A
 Frequencies --   3095.8435              3101.0388              3124.1718
 Red. masses --      1.1014                 1.1010                 1.1019
 Frc consts  --      6.2194                 6.2381                 6.3367
 IR Inten    --     30.1040                73.6111                43.5097

                     61                     62                     63
                      A                      A                      A
 Frequencies --   3127.2530              3132.7600              3138.8308
 Red. masses --      1.1003                 1.1013                 1.1014
 Frc consts  --      6.3398                 6.3683                 6.3936
 IR Inten    --     33.5019                32.7504                35.0120

 - Thermochemistry -
 -------------------
 Temperature   298.150 Kelvin.  Pressure   1.00000 Atm.
 Atom     1 has atomic number  6 and mass  12.00000

 Molecular mass:   100.12520 amu.
 Principal axes and moments of inertia in atomic units:
                           1         2         3
     Eigenvalues --   326.648431653.566451772.07929
           X            0.99998  -0.00668   0.00011
           Y            0.00668   0.99995   0.00699
           Z           -0.00015  -0.00698   0.99998
 This molecule is an asymmetric top.
 Rotational symmetry number  1.
 Rotational temperatures (Kelvin)      0.26516     0.05238     0.04888
 Rotational constants (GHZ):           5.52503     1.09142     1.01843
 Zero-point vibrational energy     575872.7 (Joules/Mol)
                                  137.63687 (Kcal/Mol)
 Warning -- explicit consideration of  11 degrees of freedom as
           vibrations may cause significant error
 Vibrational temperatures:     58.43   111.88   179.62   249.40   321.41
          (Kelvin)            361.01   420.75   426.48   515.02   628.57
                              744.32  1040.11  1081.25  1150.39  1221.04
                             1234.95  1303.21  1376.87  1383.67  1457.88
                             1503.63  1542.39  1576.90  1614.06  1661.43
                             1695.20  1769.41  1816.95  1867.17  1881.63
                             1920.09  1931.07  1983.61  1986.86  2000.97
                             2029.22  2037.67  2040.04  2130.99  2145.00
                             2149.70  2155.02  2160.74  2165.29  2170.80
                             2177.22  2185.30  4362.58  4379.19  4384.99
                             4389.29  4398.25  4402.74  4405.28  4428.49
                             4432.12  4441.86  4454.23  4461.70  4494.99
                             4499.42  4507.34  4516.08

 Zero-point correction=                           0.219338 (Hartree/Particle)
 Thermal correction to Energy=                    0.228681
 Thermal correction to Enthalpy=                  0.229626
 Thermal correction to Gibbs Free Energy=         0.184929
 Sum of electronic and zero-point Energies=           -276.119786
 Sum of electronic and thermal Energies=              -276.110443
 Sum of electronic and thermal Enthalpies=            -276.109498
 Sum of electronic and thermal Free Energies=         -276.154195

                     E (Thermal)             CV                S
                      KCal/Mol        Cal/Mol-Kelvin    Cal/Mol-Kelvin
 Total                  143.500             33.668             94.072
 Electronic               0.000              0.000              0.000
 Translational            0.889              2.981             39.722
 Rotational               0.889              2.981             28.350
 Vibrational            141.722             27.707             26.001
 Vibration     1          0.594              1.981              5.229
 Vibration     2          0.599              1.964              3.947
 Vibration     3          0.610              1.928              3.024
 Vibration     4          0.627              1.875              2.399
 Vibration     5          0.649              1.805              1.931
 Vibration     6          0.663              1.761              1.724
 Vibration     7          0.688              1.688              1.460
 Vibration     8          0.690              1.680              1.437
 Vibration     9          0.733              1.559              1.131
 Vibration    10          0.797              1.390              0.836
 Vibration    11          0.872              1.212              0.616

 Optimization completed on the basis of negligible forces.
    -- Stationary point found.
 Normal termination of Gaussian 16 at Sun Sep 29 22:37:09 2019.
