 Gaussian 16, Revision A.03,
 Gaussian 16:  EM64L-G16RevA.03 25-Dec-2016

 ----------------------------------------------------------------------
 #p m062x/cc-pVTZ opt=(calcfc,maxcycles=900,Tight) freq IOP(7/33=1,2/16
 =3) scf=(maxcycle=900)
 ----------------------------------------------------------------------

 ------------------------------
 Gaussian input prepared by ASE
 ------------------------------
 Symbolic Z-matrix:
 Charge =  0 Multiplicity = 1

 SCF Done:  E(RM062X) =  -268.305100259     A.U. after   13 cycles
 SCF Done:  E(RM062X) =  -268.314358634     A.U. after   14 cycles
 SCF Done:  E(RM062X) =  -268.282462513     A.U. after   14 cycles
 SCF Done:  E(RM062X) =  -268.312884998     A.U. after   13 cycles
 SCF Done:  E(RM062X) =  -268.315047849     A.U. after   11 cycles
 SCF Done:  E(RM062X) =  -268.315680038     A.U. after   11 cycles
 SCF Done:  E(RM062X) =  -268.315758972     A.U. after   10 cycles
 SCF Done:  E(RM062X) =  -268.315774804     A.U. after   10 cycles
 SCF Done:  E(RM062X) =  -268.315808098     A.U. after   10 cycles
 SCF Done:  E(RM062X) =  -268.315839079     A.U. after   11 cycles
 SCF Done:  E(RM062X) =  -268.324173208     A.U. after    8 cycles
 SCF Done:  E(RM062X) =  -268.324182670     A.U. after   10 cycles
 SCF Done:  E(RM062X) =  -268.324185829     A.U. after    8 cycles
 SCF Done:  E(RM062X) =  -268.324186246     A.U. after    7 cycles
 SCF Done:  E(RM062X) =  -268.324186337     A.U. after    5 cycles
 SCF Done:  E(RM062X) =  -268.324186359     A.U. after    5 cycles
 SCF Done:  E(RM062X) =  -268.324186359     A.U. after    4 cycles
 SCF Done:  E(RM062X) =  -268.324186366     A.U. after    5 cycles
 SCF Done:  E(RM062X) =  -268.324186359     A.U. after    5 cycles
 Optimization completed.
    -- Stationary point found.
 Normal termination of Gaussian 16 at Wed Sep 25 05:18:05 2019.

 ----------------------------------------------------------------------
 #P Geom=AllCheck Guess=TCheck SCRF=Check Test GenChk RM062X/CC-pVTZ Fr
 eq
 ----------------------------------------------------------------------

 Structure from the checkpoint file:  "/scratch/harms.n/gauss_scrdir/Gau-42129.chk"
 ------------------------------
 Gaussian input prepared by ASE
 ------------------------------
 Charge =  0 Multiplicity = 1

                         Standard orientation:
 ---------------------------------------------------------------------
 Center     Atomic      Atomic             Coordinates (Angstroms)
 Number     Number       Type             X           Y           Z
 ---------------------------------------------------------------------
      1          8           0        0.799596   -0.289841   -0.394587
      2          8           0       -1.881933   -0.695891    0.085839
      3          6           0        2.064276   -0.195930    0.229801
      4          6           0       -0.031431    0.766352   -0.112992
      5          6           0       -1.321059    0.539155    0.093060
      6          1           0        2.646557   -1.055941   -0.089744
      7          1           0        2.578207    0.719610   -0.076038
      8          1           0        1.965141   -0.202135    1.317799
      9          1           0        0.400147    1.758611   -0.112230
     10          1           0       -2.025340    1.338197    0.263361
     11          1           0       -1.176728   -1.329947   -0.092379
 ---------------------------------------------------------------------

 SCF Done:  E(RM062X) =  -268.324186359     A.U. after    1 cycles

 The electronic state is 1-A.
 Alpha  occ. eigenvalues --  -19.65087 -19.64216 -10.59097 -10.58531 -10.57563
 Alpha  occ. eigenvalues --   -1.19407  -1.16694  -0.86004  -0.78171  -0.68481
 Alpha  occ. eigenvalues --   -0.61262  -0.59037  -0.54689  -0.51218  -0.49965
 Alpha  occ. eigenvalues --   -0.46956  -0.44054  -0.42217  -0.38448  -0.27047
 Alpha virt. eigenvalues --    0.06778   0.07854   0.09253   0.10363   0.13456
 Alpha virt. eigenvalues --    0.13939   0.15798   0.16070   0.21611   0.28538
 Alpha virt. eigenvalues --    0.29852   0.31059   0.32803   0.35064   0.36154

 Mulliken charges:
               1
     1  O   -0.282989
     2  O   -0.345157
     3  C   -0.125774
     4  C   -0.056033
     5  C   -0.007466
     6  H    0.111796
     7  H    0.087425
     8  H    0.090425
     9  H    0.112299
    10  H    0.150443
    11  H    0.265032
 Sum of Mulliken charges =  -0.00000

 Dipole moment (field-independent basis, Debye):
    X=              2.0412    Y=              0.5954    Z=              0.5546  Tot=              2.1974
 Quadrupole moment (field-independent basis, Debye-Ang):
   XX=            -29.8757   YY=            -27.0911   ZZ=            -32.5254
   XY=             -1.8062   XZ=              0.8085   YZ=              0.2059

  Exact polarizability:  59.971   0.414  41.844  -1.151  -0.132  31.795
 Approx polarizability:  65.050   2.294  49.137  -2.430   0.348  39.306

                      1                      2                      3
                      A                      A                      A
 Frequencies --     69.3930               187.0270               231.0530
 Red. masses --      3.3052                 1.3313                 2.5755
 Frc consts  --      0.0094                 0.0274                 0.0810
 IR Inten    --      3.2971                 0.3340                 6.3050

                      4                      5                      6
                      A                      A                      A
 Frequencies --    358.4181               479.4408               586.1019
 Red. masses --      2.9424                 1.1816                 3.1567
 Frc consts  --      0.2227                 0.1600                 0.6389
 IR Inten    --      6.4082                90.2404                16.8956

                      7                      8                      9
                      A                      A                      A
 Frequencies --    745.3468               774.6699               919.0064
 Red. masses --      3.8775                 1.3399                 1.2745
 Frc consts  --      1.2692                 0.4737                 0.6342
 IR Inten    --     21.3276                37.6927                 5.9184

                     10                     11                     12
                      A                      A                      A
 Frequencies --   1009.3181              1116.8080              1178.1532
 Red. masses --      3.5633                 2.6546                 3.5676
 Frc consts  --      2.1387                 1.9508                 2.9176
 IR Inten    --     21.6903               105.0953               203.4899

                     13                     14                     15
                      A                      A                      A
 Frequencies --   1189.1877              1212.8019              1276.9420
 Red. masses --      1.2955                 1.1908                 1.6849
 Frc consts  --      1.0794                 1.0320                 1.6187
 IR Inten    --      4.1763                73.9283                66.6668

                     16                     17                     18
                      A                      A                      A
 Frequencies --   1371.2515              1418.0333              1492.3091
 Red. masses --      1.4864                 1.3584                 1.1965
 Frc consts  --      1.6467                 1.6094                 1.5700
 IR Inten    --      0.5134                95.4601                11.4250

                     19                     20                     21
                      A                      A                      A
 Frequencies --   1499.5359              1517.3814              1781.4400
 Red. masses --      1.0447                 1.0495                 6.2692
 Frc consts  --      1.3840                 1.4237                11.7221
 IR Inten    --      7.4374                11.0580                61.4685

                     22                     23                     24
                      A                      A                      A
 Frequencies --   3035.8100              3096.2758              3162.2652
 Red. masses --      1.0346                 1.1049                 1.1004
 Frc consts  --      5.6180                 6.2411                 6.4834
 IR Inten    --     53.7774                36.6879                18.0942

                     25                     26                     27
                      A                      A                      A
 Frequencies --   3205.6032              3258.4770              3828.7108
 Red. masses --      1.0901                 1.0982                 1.0647
 Frc consts  --      6.5999                 6.8703                 9.1953
 IR Inten    --      7.0100                 7.2799                58.8453

 - Thermochemistry -
 -------------------
 Temperature   298.150 Kelvin.  Pressure   1.00000 Atm.
 Atom     1 has atomic number  8 and mass  15.99491

 Molecular mass:    74.03678 amu.
 Principal axes and moments of inertia in atomic units:
                           1         2         3
     Eigenvalues --   120.52850 597.81852 680.38308
           X            0.99986  -0.01266   0.01109
           Y            0.01263   0.99992   0.00227
           Z           -0.01111  -0.00213   0.99994
 This molecule is an asymmetric top.
 Rotational symmetry number  1.
 Rotational temperatures (Kelvin)      0.71862     0.14488     0.12730
 Rotational constants (GHZ):          14.97356     3.01888     2.65254
 Zero-point vibrational energy     239257.7 (Joules/Mol)
                                   57.18396 (Kcal/Mol)
 Warning -- explicit consideration of   6 degrees of freedom as
           vibrations may cause significant error
 Vibrational temperatures:     99.84   269.09   332.43   515.68   689.81
          (Kelvin)            843.27  1072.39  1114.58  1322.25  1452.18
                             1606.84  1695.10  1710.98  1744.95  1837.23
                             1972.93  2040.23  2147.10  2157.50  2183.17
                             2563.09  4367.85  4454.85  4549.79  4612.15
                             4688.22  5508.66

 Zero-point correction=                           0.091128 (Hartree/Particle)
 Thermal correction to Energy=                    0.096997
 Thermal correction to Enthalpy=                  0.097941
 Thermal correction to Gibbs Free Energy=         0.061912
 Sum of electronic and zero-point Energies=           -268.233058
 Sum of electronic and thermal Energies=              -268.227190
 Sum of electronic and thermal Enthalpies=            -268.226245
 Sum of electronic and thermal Free Energies=         -268.262274

                     E (Thermal)             CV                S
                      KCal/Mol        Cal/Mol-Kelvin    Cal/Mol-Kelvin
 Total                   60.866             19.297             75.829
 Electronic               0.000              0.000              0.000
 Translational            0.889              2.981             38.822
 Rotational               0.889              2.981             25.397
 Vibrational             59.089             13.335             11.610
 Vibration     1          0.598              1.969              4.171
 Vibration     2          0.632              1.858              2.257
 Vibration     3          0.653              1.794              1.871
 Vibration     4          0.733              1.558              1.129
 Vibration     5          0.836              1.296              0.712
 Vibration     6          0.943              1.061              0.474

 Optimization completed.
    -- Stationary point found.
 Normal termination of Gaussian 16 at Wed Sep 25 05:53:31 2019.
