 Gaussian 16, Revision A.03,
 Gaussian 16:  EM64L-G16RevA.03 25-Dec-2016

 ----------------------------------------------------------------------
 #p m062x/cc-pVTZ opt=(calcfc,maxcycles=900,Tight) freq IOP(7/33=1,2/16
 =3) scf=(maxcycle=900)
 ----------------------------------------------------------------------

 ------------------------------
 Gaussian input prepared by ASE
 ------------------------------
 Symbolic Z-matrix:
 Charge =  0 Multiplicity = 1

 SCF Done:  E(RM062X) =  -268.309575749     A.U. after   13 cycles
 SCF Done:  E(RM062X) =  -268.313694712     A.U. after   13 cycles
 SCF Done:  E(RM062X) =  -268.320245692     A.U. after   12 cycles
 SCF Done:  E(RM062X) =  -268.320805220     A.U. after   12 cycles
 SCF Done:  E(RM062X) =  -268.321329302     A.U. after   12 cycles
 SCF Done:  E(RM062X) =  -268.321701767     A.U. after   12 cycles
 SCF Done:  E(RM062X) =  -268.322969960     A.U. after   11 cycles
 SCF Done:  E(RM062X) =  -268.323989751     A.U. after   13 cycles
 SCF Done:  E(RM062X) =  -268.324077343     A.U. after   11 cycles
 SCF Done:  E(RM062X) =  -268.324180844     A.U. after   10 cycles
 SCF Done:  E(RM062X) =  -268.324186012     A.U. after    9 cycles
 SCF Done:  E(RM062X) =  -268.324186363     A.U. after    7 cycles
 SCF Done:  E(RM062X) =  -268.324186357     A.U. after    6 cycles
 SCF Done:  E(RM062X) =  -268.324186359     A.U. after    4 cycles
 SCF Done:  E(RM062X) =  -268.324186359     A.U. after    3 cycles
 Optimization completed.
    -- Stationary point found.
 Normal termination of Gaussian 16 at Wed Sep 25 01:41:29 2019.

 ----------------------------------------------------------------------
 #P Geom=AllCheck Guess=TCheck SCRF=Check Test GenChk RM062X/CC-pVTZ Fr
 eq
 ----------------------------------------------------------------------

 Structure from the checkpoint file:  "/scratch/harms.n/gauss_scrdir/Gau-39707.chk"
 ------------------------------
 Gaussian input prepared by ASE
 ------------------------------
 Charge =  0 Multiplicity = 1

                         Standard orientation:
 ---------------------------------------------------------------------
 Center     Atomic      Atomic             Coordinates (Angstroms)
 Number     Number       Type             X           Y           Z
 ---------------------------------------------------------------------
      1          8           0       -0.799595   -0.289850   -0.394574
      2          8           0        1.881941   -0.695886    0.085838
      3          6           0       -2.064283   -0.195925    0.229793
      4          6           0        0.031430    0.766347   -0.112989
      5          6           0        1.321061    0.539157    0.093055
      6          1           0       -1.965164   -0.202104    1.317793
      7          1           0       -2.578210    0.719607   -0.076075
      8          1           0       -2.646560   -1.055944   -0.089739
      9          1           0       -0.400154    1.758604   -0.112230
     10          1           0        2.025339    1.338204    0.263344
     11          1           0        1.176736   -1.329948   -0.092365
 ---------------------------------------------------------------------

 SCF Done:  E(RM062X) =  -268.324186359     A.U. after    1 cycles

 The electronic state is 1-A.
 Alpha  occ. eigenvalues --  -19.65087 -19.64216 -10.59097 -10.58531 -10.57563
 Alpha  occ. eigenvalues --   -1.19407  -1.16694  -0.86004  -0.78171  -0.68481
 Alpha  occ. eigenvalues --   -0.61262  -0.59037  -0.54689  -0.51218  -0.49965
 Alpha  occ. eigenvalues --   -0.46956  -0.44054  -0.42217  -0.38448  -0.27047
 Alpha virt. eigenvalues --    0.06778   0.07854   0.09253   0.10363   0.13456
 Alpha virt. eigenvalues --    0.13939   0.15798   0.16070   0.21611   0.28538
 Alpha virt. eigenvalues --    0.29852   0.31059   0.32803   0.35064   0.36154

 Mulliken charges:
               1
     1  O   -0.282989
     2  O   -0.345158
     3  C   -0.125774
     4  C   -0.056033
     5  C   -0.007466
     6  H    0.090425
     7  H    0.087425
     8  H    0.111796
     9  H    0.112299
    10  H    0.150442
    11  H    0.265032
 Sum of Mulliken charges =  -0.00000

 Dipole moment (field-independent basis, Debye):
    X=             -2.0413    Y=              0.5954    Z=              0.5546  Tot=              2.1975
 Quadrupole moment (field-independent basis, Debye-Ang):
   XX=            -29.8757   YY=            -27.0911   ZZ=            -32.5254
   XY=              1.8062   XZ=             -0.8084   YZ=              0.2058

  Exact polarizability:  59.972  -0.414  41.844   1.151  -0.132  31.795
 Approx polarizability:  65.050  -2.294  49.137   2.430   0.348  39.306

                      1                      2                      3
                      A                      A                      A
 Frequencies --     69.3936               187.0278               231.0518
 Red. masses --      3.3051                 1.3313                 2.5753
 Frc consts  --      0.0094                 0.0274                 0.0810
 IR Inten    --      3.2970                 0.3341                 6.3049

                      4                      5                      6
                      A                      A                      A
 Frequencies --    358.4200               479.4408               586.1002
 Red. masses --      2.9424                 1.1816                 3.1568
 Frc consts  --      0.2227                 0.1600                 0.6389
 IR Inten    --      6.4081                90.2406                16.8958

                      7                      8                      9
                      A                      A                      A
 Frequencies --    745.3467               774.6678               919.0037
 Red. masses --      3.8774                 1.3399                 1.2745
 Frc consts  --      1.2691                 0.4737                 0.6342
 IR Inten    --     21.3286                37.6920                 5.9187

                     10                     11                     12
                      A                      A                      A
 Frequencies --   1009.3187              1116.8087              1178.1539
 Red. masses --      3.5632                 2.6546                 3.5675
 Frc consts  --      2.1387                 1.9508                 2.9175
 IR Inten    --     21.6903               105.0961               203.4853

                     13                     14                     15
                      A                      A                      A
 Frequencies --   1189.1866              1212.8021              1276.9427
 Red. masses --      1.2955                 1.1908                 1.6849
 Frc consts  --      1.0795                 1.0320                 1.6187
 IR Inten    --      4.1783                73.9334                66.6674

                     16                     17                     18
                      A                      A                      A
 Frequencies --   1371.2519              1418.0342              1492.3086
 Red. masses --      1.4864                 1.3584                 1.1965
 Frc consts  --      1.6467                 1.6094                 1.5700
 IR Inten    --      0.5133                95.4607                11.4257

                     19                     20                     21
                      A                      A                      A
 Frequencies --   1499.5354              1517.3805              1781.4398
 Red. masses --      1.0447                 1.0495                 6.2692
 Frc consts  --      1.3840                 1.4237                11.7221
 IR Inten    --      7.4373                11.0580                61.4687

                     22                     23                     24
                      A                      A                      A
 Frequencies --   3035.8100              3096.2756              3162.2668
 Red. masses --      1.0346                 1.1049                 1.1004
 Frc consts  --      5.6180                 6.2411                 6.4834
 IR Inten    --     53.7775                36.6879                18.0939

                     25                     26                     27
                      A                      A                      A
 Frequencies --   3205.6043              3258.4770              3828.7059
 Red. masses --      1.0901                 1.0982                 1.0647
 Frc consts  --      6.5999                 6.8703                 9.1953
 IR Inten    --      7.0099                 7.2800                58.8451

 - Thermochemistry -
 -------------------
 Temperature   298.150 Kelvin.  Pressure   1.00000 Atm.
 Atom     1 has atomic number  8 and mass  15.99491

 Molecular mass:    74.03678 amu.
 Principal axes and moments of inertia in atomic units:
                           1         2         3
     Eigenvalues --   120.52717 597.82117 680.38618
           X            0.99986   0.01266  -0.01108
           Y           -0.01263   0.99992   0.00226
           Z            0.01111  -0.00212   0.99994
 This molecule is an asymmetric top.
 Rotational symmetry number  1.
 Rotational temperatures (Kelvin)      0.71863     0.14488     0.12730
 Rotational constants (GHZ):          14.97373     3.01886     2.65252
 Zero-point vibrational energy     239257.6 (Joules/Mol)
                                   57.18395 (Kcal/Mol)
 Warning -- explicit consideration of   6 degrees of freedom as
           vibrations may cause significant error
 Vibrational temperatures:     99.84   269.09   332.43   515.69   689.81
          (Kelvin)            843.27  1072.39  1114.57  1322.24  1452.18
                             1606.84  1695.10  1710.97  1744.95  1837.24
                             1972.93  2040.23  2147.10  2157.50  2183.17
                             2563.09  4367.85  4454.85  4549.80  4612.15
                             4688.22  5508.65

 Zero-point correction=                           0.091128 (Hartree/Particle)
 Thermal correction to Energy=                    0.096997
 Thermal correction to Enthalpy=                  0.097941
 Thermal correction to Gibbs Free Energy=         0.061912
 Sum of electronic and zero-point Energies=           -268.233058
 Sum of electronic and thermal Energies=              -268.227190
 Sum of electronic and thermal Enthalpies=            -268.226245
 Sum of electronic and thermal Free Energies=         -268.262274

                     E (Thermal)             CV                S
                      KCal/Mol        Cal/Mol-Kelvin    Cal/Mol-Kelvin
 Total                   60.866             19.297             75.829
 Electronic               0.000              0.000              0.000
 Translational            0.889              2.981             38.822
 Rotational               0.889              2.981             25.397
 Vibrational             59.089             13.335             11.610
 Vibration     1          0.598              1.969              4.170
 Vibration     2          0.632              1.858              2.257
 Vibration     3          0.653              1.794              1.871
 Vibration     4          0.733              1.558              1.129
 Vibration     5          0.836              1.296              0.712
 Vibration     6          0.943              1.061              0.474

 Optimization completed.
    -- Stationary point found.
 Normal termination of Gaussian 16 at Wed Sep 25 02:16:14 2019.
 Normal termination of Gaussian 16 at Tue Sep 24 23:00:02 2019.
