 Gaussian 16, Revision A.03,
 Gaussian 16:  EM64L-G16RevA.03 25-Dec-2016

 ----------------------------------------------------------------------
 #p m062x/cc-pVTZ Opt=(ModRedun,Loose,maxcycles=900) Int(Grid=SG1) scf=
 (maxcycle=900)
 ----------------------------------------------------------------------

 ------------------------------
 Gaussian input prepared by ASE
 ------------------------------
 Symbolic Z-matrix:
 Charge =  0 Multiplicity = 2

 SCF Done:  E(UM062X) =  -269.966389441     A.U. after   16 cycles
 SCF Done:  E(UM062X) =  -269.973038468     A.U. after   14 cycles
 SCF Done:  E(UM062X) =  -269.974451384     A.U. after   14 cycles
 SCF Done:  E(UM062X) =  -269.974707800     A.U. after   14 cycles
 SCF Done:  E(UM062X) =  -269.975263138     A.U. after   13 cycles
 SCF Done:  E(UM062X) =  -269.976093150     A.U. after   14 cycles
 SCF Done:  E(UM062X) =  -269.976978085     A.U. after   12 cycles
 SCF Done:  E(UM062X) =  -269.977459692     A.U. after   15 cycles
 SCF Done:  E(UM062X) =  -269.977731769     A.U. after   13 cycles
 SCF Done:  E(UM062X) =  -269.977775204     A.U. after   13 cycles
 SCF Done:  E(UM062X) =  -269.977787791     A.U. after   13 cycles
 SCF Done:  E(UM062X) =  -269.977835936     A.U. after   12 cycles
 SCF Done:  E(UM062X) =  -269.977841333     A.U. after   11 cycles
 Optimization completed.
    -- Stationary point found.

                         Standard orientation:
 ---------------------------------------------------------------------
 Center     Atomic      Atomic             Coordinates (Angstroms)
 Number     Number       Type             X           Y           Z
 ---------------------------------------------------------------------
      1          8           0        2.489354    0.217105   -0.242167
      2          8           0        1.622467   -0.768617    0.225660
      3          6           0       -1.548820    0.612147   -0.303366
      4          6           0       -0.294758    0.680078    0.521208
      5          6           0       -2.321064   -0.684717   -0.091126
      6          1           0       -1.308568    0.739949   -1.360563
      7          1           0       -2.186722    1.464254   -0.037482
      8          1           0        0.557263   -0.310734    0.114126
      9          1           0        0.372681    1.518621    0.349933
     10          1           0       -0.405612    0.427740    1.572306
     11          1           0       -1.720759   -1.545003   -0.387214
     12          1           0       -3.242071   -0.699502   -0.670015
     13          1           0       -2.581011   -0.808095    0.960460
     14          1           0        2.608079   -0.020186   -1.169794
 ---------------------------------------------------------------------

 The electronic state is 2-A.
 Alpha  occ. eigenvalues --  -19.68291 -19.68081 -10.55184 -10.54758 -10.53190
 Alpha  occ. eigenvalues --   -1.26275  -0.98824  -0.89818  -0.78449  -0.68650
 Alpha  occ. eigenvalues --   -0.61778  -0.57898  -0.53339  -0.52594  -0.51592
 Alpha  occ. eigenvalues --   -0.48004  -0.43327  -0.41997  -0.41384  -0.39107
 Alpha  occ. eigenvalues --   -0.37243  -0.28794
 Alpha virt. eigenvalues --    0.05857   0.07434   0.10970   0.11107   0.11731
 Alpha virt. eigenvalues --    0.13811   0.14636   0.16041   0.17249   0.20081
 Alpha virt. eigenvalues --    0.23330   0.25990   0.28397   0.29144   0.29928

  Beta  occ. eigenvalues --  -19.68179 -19.67164 -10.54780 -10.54641 -10.53180
  Beta  occ. eigenvalues --   -1.24720  -0.96531  -0.88983  -0.77178  -0.67515
  Beta  occ. eigenvalues --   -0.60624  -0.55024  -0.52198  -0.51765  -0.49704
  Beta  occ. eigenvalues --   -0.47409  -0.42460  -0.41425  -0.41003  -0.35871
  Beta  occ. eigenvalues --   -0.35801
  Beta virt. eigenvalues --   -0.06918   0.05807   0.07464   0.10851   0.11113
  Beta virt. eigenvalues --    0.11897   0.13985   0.14769   0.16366   0.17509
  Beta virt. eigenvalues --    0.20313   0.24006   0.26346   0.28368   0.29136

 Mulliken charges and spin densities:
               1          2
     1  O   -0.250343   0.034148
     2  O   -0.229306   0.365528
     3  C   -0.216293  -0.038722
     4  C   -0.370629   0.669429
     5  C   -0.333697   0.004614
     6  H    0.124804   0.007343
     7  H    0.127595   0.045588
     8  H    0.233063  -0.019269
     9  H    0.156728  -0.033484
    10  H    0.148645  -0.035474
    11  H    0.116506   0.001234
    12  H    0.114171   0.000678
    13  H    0.112902   0.000173
    14  H    0.265853  -0.001785
 Sum of Mulliken charges =  -0.00000   1.00000

 Dipole moment (field-independent basis, Debye):
    X=             -1.6176    Y=              0.6933    Z=             -1.6403  Tot=              2.4058
 Quadrupole moment (field-independent basis, Debye-Ang):
   XX=            -34.0874   YY=            -33.9893   ZZ=            -30.1158
   XY=              0.2085   XZ=             -4.9104   YZ=              0.4464

 Normal termination of Gaussian 16 at Thu Sep  5 15:57:24 2019.
