 Gaussian 16, Revision A.03,
 Gaussian 16:  EM64L-G16RevA.03 25-Dec-2016

 ----------------------------------------------------------------------
 #p m062x/cc-pVTZ opt=(ts,calcfc,noeigentest,maxcycles=900) freq scf=(m
 axcycle=900) IOP(7/33=1,2/16=3)
 ----------------------------------------------------------------------

 ------------------------------
 Gaussian input prepared by ASE
 ------------------------------
 Symbolic Z-matrix:
 Charge =  0 Multiplicity = 2

 SCF Done:  E(UM062X) =  -269.978580758     A.U. after   19 cycles
 SCF Done:  E(UM062X) =  -269.982036200     A.U. after   15 cycles
 SCF Done:  E(UM062X) =  -269.982761118     A.U. after   15 cycles
 SCF Done:  E(UM062X) =  -269.983016019     A.U. after   15 cycles
 SCF Done:  E(UM062X) =  -269.983134259     A.U. after   14 cycles
 SCF Done:  E(UM062X) =  -269.983202709     A.U. after   14 cycles
 SCF Done:  E(UM062X) =  -269.983222532     A.U. after   13 cycles
 SCF Done:  E(UM062X) =  -269.983231974     A.U. after   13 cycles
 SCF Done:  E(UM062X) =  -269.983237908     A.U. after    8 cycles
 SCF Done:  E(UM062X) =  -269.983294237     A.U. after   14 cycles
 SCF Done:  E(UM062X) =  -269.983376487     A.U. after   13 cycles
 SCF Done:  E(UM062X) =  -269.983382930     A.U. after   13 cycles
 SCF Done:  E(UM062X) =  -269.983386340     A.U. after   13 cycles
 SCF Done:  E(UM062X) =  -269.983387546     A.U. after   11 cycles
 SCF Done:  E(UM062X) =  -269.983394698     A.U. after   13 cycles
 SCF Done:  E(UM062X) =  -269.983399841     A.U. after   13 cycles
 SCF Done:  E(UM062X) =  -269.983391800     A.U. after   14 cycles
 SCF Done:  E(UM062X) =  -269.983400432     A.U. after   13 cycles
 SCF Done:  E(UM062X) =  -269.983400503     A.U. after   11 cycles
 Optimization completed.
    -- Stationary point found.
 Normal termination of Gaussian 16 at Fri Sep  6 05:32:08 2019.

 ----------------------------------------------------------------------
 #P Geom=AllCheck Guess=TCheck SCRF=Check Test GenChk UM062X/CC-pVTZ Fr
 eq
 ----------------------------------------------------------------------

 Structure from the checkpoint file:  "/scratch/harms.n/gauss_scrdir/Gau-23020.chk"
 ------------------------------
 Gaussian input prepared by ASE
 ------------------------------
 Charge =  0 Multiplicity = 2

                         Standard orientation:
 ---------------------------------------------------------------------
 Center     Atomic      Atomic             Coordinates (Angstroms)
 Number     Number       Type             X           Y           Z
 ---------------------------------------------------------------------
      1          8           0        2.068845   -0.793994   -0.243667
      2          8           0        2.016623    0.526896    0.181140
      3          6           0       -1.041082   -0.336869    0.158186
      4          6           0       -0.427473    1.003849   -0.120869
      5          6           0       -2.561745   -0.315051   -0.034607
      6          1           0       -0.811449   -0.640592    1.181976
      7          1           0       -0.600671   -1.083456   -0.504632
      8          1           0        0.895562    0.830739    0.029869
      9          1           0       -0.494238    1.346717   -1.150747
     10          1           0       -0.645927    1.786946    0.601582
     11          1           0       -3.027366    0.408590    0.634388
     12          1           0       -2.993130   -1.294680    0.169208
     13          1           0       -2.815765   -0.037869   -1.057643
     14          1           0        1.991044   -1.291185    0.579952
 ---------------------------------------------------------------------

 SCF Done:  E(UM062X) =  -269.983400503     A.U. after    1 cycles

 The electronic state is 2-A.
 Alpha  occ. eigenvalues --  -19.68918 -19.68486 -10.55272 -10.54540 -10.53534
 Alpha  occ. eigenvalues --   -1.26916  -0.98975  -0.89939  -0.78703  -0.68294
 Alpha  occ. eigenvalues --   -0.62290  -0.58657  -0.54983  -0.52311  -0.50325
 Alpha  occ. eigenvalues --   -0.46941  -0.45931  -0.42037  -0.40796  -0.39796
 Alpha  occ. eigenvalues --   -0.37513  -0.29466
 Alpha virt. eigenvalues --    0.05571   0.07442   0.10245   0.10877   0.12853
 Alpha virt. eigenvalues --    0.14076   0.14983   0.16270   0.17121   0.19324
 Alpha virt. eigenvalues --    0.24812   0.25849   0.28194   0.28732   0.30385

  Beta  occ. eigenvalues --  -19.68748 -19.67535 -10.54754 -10.54563 -10.53464
  Beta  occ. eigenvalues --   -1.25231  -0.96516  -0.89107  -0.77290  -0.67528
  Beta  occ. eigenvalues --   -0.60816  -0.55399  -0.54322  -0.50530  -0.49600
  Beta  occ. eigenvalues --   -0.46404  -0.44243  -0.41531  -0.40401  -0.36484
  Beta  occ. eigenvalues --   -0.35472
  Beta virt. eigenvalues --   -0.07820   0.05682   0.07458   0.10302   0.10916
  Beta virt. eigenvalues --    0.13043   0.14183   0.14982   0.16620   0.17342
  Beta virt. eigenvalues --    0.19582   0.25125   0.26366   0.28243   0.28889

 Mulliken charges and spin densities:
               1          2
     1  O   -0.238656   0.052718
     2  O   -0.214581   0.388613
     3  C   -0.258847  -0.034729
     4  C   -0.364068   0.628885
     5  C   -0.336502   0.032611
     6  H    0.129864   0.005046
     7  H    0.145318   0.005126
     8  H    0.245218  -0.021302
     9  H    0.141336  -0.030984
    10  H    0.136814  -0.030292
    11  H    0.112869  -0.001481
    12  H    0.116534   0.010359
    13  H    0.115545  -0.001716
    14  H    0.269158  -0.002854
 Sum of Mulliken charges =  -0.00000   1.00000

 Dipole moment (field-independent basis, Debye):
    X=             -2.1222    Y=             -0.8392    Z=              1.0960  Tot=              2.5317
 Quadrupole moment (field-independent basis, Debye-Ang):
   XX=            -37.5428   YY=            -30.6240   ZZ=            -32.0751
   XY=             -2.5951   XZ=              2.3664   YZ=             -1.9712

  Exact polarizability:  80.231  -6.239  53.136   1.569  -0.802  42.722
 Approx polarizability:  76.107  -6.139  63.007   1.185   0.450  52.612

 ******    1 imaginary frequencies (negative Signs) ******

                      1                      2                      3
                      A                      A                      A
 Frequencies --  -1868.1890                38.6376                74.5779
 Red. masses --      1.1002                 2.5781                 2.6150
 Frc consts  --      2.2624                 0.0023                 0.0086
 IR Inten    --   1549.3492                 4.6511                 3.3970

                      4                      5                      6
                      A                      A                      A
 Frequencies --    102.7883               229.4466               249.1067
 Red. masses --      3.7995                 3.7668                 1.0780
 Frc consts  --      0.0237                 0.1168                 0.0394
 IR Inten    --      0.9808                 0.0914                 0.0264

                      7                      8                      9
                      A                      A                      A
 Frequencies --    348.9805               402.1514               521.6506
 Red. masses --      2.5105                 1.1568                 1.2753
 Frc consts  --      0.1801                 0.1102                 0.2045
 IR Inten    --      7.1914               115.9095                31.5088

                     10                     11                     12
                      A                      A                      A
 Frequencies --    589.0605               759.4003               907.5049
 Red. masses --      2.8494                 1.0705                 1.1312
 Frc consts  --      0.5825                 0.3637                 0.5489
 IR Inten    --      0.1907                 3.8195                 1.4005

                     13                     14                     15
                      A                      A                      A
 Frequencies --    912.1375               984.5352              1069.1541
 Red. masses --      1.6551                 1.7031                 2.5751
 Frc consts  --      0.8113                 0.9726                 1.7343
 IR Inten    --      5.5182                 4.9456                 6.5329

                     16                     17                     18
                      A                      A                      A
 Frequencies --   1082.4636              1119.5302              1166.9572
 Red. masses --      4.0168                 1.5651                 1.3943
 Frc consts  --      2.7730                 1.1557                 1.1187
 IR Inten    --     31.8886                15.7099                 3.8765

                     19                     20                     21
                      A                      A                      A
 Frequencies --   1218.8284              1313.1898              1342.3760
 Red. masses --      1.5485                 1.1130                 1.4360
 Frc consts  --      1.3553                 1.1308                 1.5246
 IR Inten    --      1.1549                 0.4946                 0.2586

                     22                     23                     24
                      A                      A                      A
 Frequencies --   1404.1355              1416.7653              1454.0174
 Red. masses --      1.2160                 1.1131                 1.0431
 Frc consts  --      1.4125                 1.3164                 1.2994
 IR Inten    --      0.3782                49.5489                 6.9221

                     25                     26                     27
                      A                      A                      A
 Frequencies --   1467.7235              1496.0034              1500.8261
 Red. masses --      1.1636                 1.0498                 1.0395
 Frc consts  --      1.4768                 1.3842                 1.3796
 IR Inten    --      2.6233                 2.3135                 7.6127

                     28                     29                     30
                      A                      A                      A
 Frequencies --   1512.4254              3058.2353              3061.9732
 Red. masses --      1.0936                 1.0572                 1.0369
 Frc consts  --      1.4739                 5.8255                 5.7277
 IR Inten    --      5.4879                 9.0325                29.0668

                     31                     32                     33
                      A                      A                      A
 Frequencies --   3098.5220              3102.0077              3136.6455
 Red. masses --      1.0965                 1.0581                 1.1035
 Frc consts  --      6.2024                 5.9989                 6.3966
 IR Inten    --      4.0100                10.0983                25.1561

                     34                     35                     36
                      A                      A                      A
 Frequencies --   3137.0728              3185.9835              3808.8682
 Red. masses --      1.1027                 1.1119                 1.0684
 Frc consts  --      6.3937                 6.6499                 9.1321
 IR Inten    --     21.2282                13.0014                52.1464

 - Thermochemistry -
 -------------------
 Temperature   298.150 Kelvin.  Pressure   1.00000 Atm.
 Atom     1 has atomic number  8 and mass  15.99491

 Molecular mass:    77.06025 amu.
 Principal axes and moments of inertia in atomic units:
                           1         2         3
     Eigenvalues --   168.79719 951.570391069.16704
           X            0.99999   0.00141   0.00469
           Y           -0.00122   0.99920  -0.03999
           Z           -0.00474   0.03998   0.99919
 This molecule is an asymmetric top.
 Rotational symmetry number  1.
 Rotational temperatures (Kelvin)      0.51312     0.09102     0.08101
 Rotational constants (GHZ):          10.69177     1.89659     1.68799
    1 imaginary frequencies ignored.
 Zero-point vibrational energy     300703.4 (Joules/Mol)
                                   71.86984 (Kcal/Mol)
 Warning -- explicit consideration of   9 degrees of freedom as
           vibrations may cause significant error
 Vibrational temperatures:     55.59   107.30   147.89   330.12   358.41
          (Kelvin)            502.11   578.61   750.54   847.53  1092.61
                             1305.70  1312.36  1416.53  1538.27  1557.42
                             1610.75  1678.99  1753.62  1889.39  1931.38
                             2020.24  2038.41  2092.01  2111.73  2152.42
                             2159.35  2176.04  4400.12  4405.50  4458.08
                             4463.10  4512.93  4513.55  4583.92  5480.11

 Zero-point correction=                           0.114532 (Hartree/Particle)
 Thermal correction to Energy=                    0.122192
 Thermal correction to Enthalpy=                  0.123136
 Thermal correction to Gibbs Free Energy=         0.081526
 Sum of electronic and zero-point Energies=           -269.868869
 Sum of electronic and thermal Energies=              -269.861208
 Sum of electronic and thermal Enthalpies=            -269.860264
 Sum of electronic and thermal Free Energies=         -269.901875

                     E (Thermal)             CV                S
                      KCal/Mol        Cal/Mol-Kelvin    Cal/Mol-Kelvin
 Total                   76.677             24.961             87.577
 Electronic               0.000              0.000              1.377
 Translational            0.889              2.981             38.941
 Rotational               0.889              2.981             26.643
 Vibrational             74.899             18.999             20.616
 Vibration     1          0.594              1.981              5.328
 Vibration     2          0.599              1.966              4.029
 Vibration     3          0.605              1.947              3.401
 Vibration     4          0.652              1.796              1.883
 Vibration     5          0.662              1.764              1.737
 Vibration     6          0.726              1.577              1.171
 Vibration     7          0.768              1.465              0.955
 Vibration     8          0.877              1.202              0.606
 Vibration     9          0.946              1.055              0.469

                           ! Non-Optimized Parameters !
 Normal termination of Gaussian 16 at Fri Sep  6 06:50:28 2019.
