 Gaussian 16, Revision A.03,
 Gaussian 16:  EM64L-G16RevA.03 25-Dec-2016

 ----------------------------------------------------------------------
 #p m062x/cc-pVTZ opt=(ts,calcfc,noeigentest,maxcycles=900) freq scf=(m
 axcycle=900) IOP(7/33=1,2/16=3)
 ----------------------------------------------------------------------

 ------------------------------
 Gaussian input prepared by ASE
 ------------------------------
 Symbolic Z-matrix:
 Charge =  0 Multiplicity = 2

 SCF Done:  E(UM062X) =  -269.979715557     A.U. after   18 cycles
 SCF Done:  E(UM062X) =  -269.982759526     A.U. after   19 cycles
 SCF Done:  E(UM062X) =  -269.984057191     A.U. after   17 cycles
 SCF Done:  E(UM062X) =  -269.983113568     A.U. after   18 cycles
 SCF Done:  E(UM062X) =  -269.983414023     A.U. after   15 cycles
 SCF Done:  E(UM062X) =  -269.984331208     A.U. after   15 cycles
 SCF Done:  E(UM062X) =  -269.984566698     A.U. after   14 cycles
 SCF Done:  E(UM062X) =  -269.984182711     A.U. after   14 cycles
 SCF Done:  E(UM062X) =  -269.984482965     A.U. after   17 cycles
 SCF Done:  E(UM062X) =  -269.984835689     A.U. after   15 cycles
 SCF Done:  E(UM062X) =  -269.984903260     A.U. after   14 cycles
 SCF Done:  E(UM062X) =  -269.984851668     A.U. after   14 cycles
 SCF Done:  E(UM062X) =  -269.984932019     A.U. after   14 cycles
 SCF Done:  E(UM062X) =  -269.984934989     A.U. after   12 cycles
 SCF Done:  E(UM062X) =  -269.984937000     A.U. after   11 cycles
 SCF Done:  E(UM062X) =  -269.984937042     A.U. after    9 cycles
 Optimization completed.
    -- Stationary point found.
 Normal termination of Gaussian 16 at Fri Sep  6 09:30:03 2019.

 ----------------------------------------------------------------------
 #P Geom=AllCheck Guess=TCheck SCRF=Check Test GenChk UM062X/CC-pVTZ Fr
 eq
 ----------------------------------------------------------------------

 Structure from the checkpoint file:  "/scratch/harms.n/gauss_scrdir/Gau-25129.chk"
 ------------------------------
 Gaussian input prepared by ASE
 ------------------------------
 Charge =  0 Multiplicity = 2

                         Standard orientation:
 ---------------------------------------------------------------------
 Center     Atomic      Atomic             Coordinates (Angstroms)
 Number     Number       Type             X           Y           Z
 ---------------------------------------------------------------------
      1          8           0       -1.780369   -0.553924    0.526028
      2          8           0       -1.626590    0.245376   -0.598760
      3          6           0        1.269637    0.140226    0.583093
      4          6           0        0.577678    1.311115   -0.049088
      5          6           0        1.539468   -0.981696   -0.413334
      6          1           0        0.665180   -0.226902    1.415475
      7          1           0        2.215587    0.475584    1.024331
      8          1           0       -0.623628    0.826847   -0.398720
      9          1           0        0.306167    2.129373    0.611629
     10          1           0        0.981611    1.642501   -1.003489
     11          1           0        0.613379   -1.302332   -0.894319
     12          1           0        1.995930   -1.845104    0.068190
     13          1           0        2.209339   -0.642964   -1.204426
     14          1           0       -1.428589   -1.406491    0.239156
 ---------------------------------------------------------------------

 SCF Done:  E(UM062X) =  -269.984937042     A.U. after    1 cycles

 The electronic state is 2-A.
 Alpha  occ. eigenvalues --  -19.69111 -19.68666 -10.55324 -10.54647 -10.53517
 Alpha  occ. eigenvalues --   -1.27072  -0.99086  -0.90138  -0.78747  -0.68659
 Alpha  occ. eigenvalues --   -0.62316  -0.58913  -0.53518  -0.53289  -0.51457
 Alpha  occ. eigenvalues --   -0.48430  -0.43727  -0.42250  -0.41403  -0.40077
 Alpha  occ. eigenvalues --   -0.37668  -0.29504
 Alpha virt. eigenvalues --    0.05126   0.08221   0.10262   0.11169   0.12280
 Alpha virt. eigenvalues --    0.14143   0.15094   0.16259   0.18277   0.20097
 Alpha virt. eigenvalues --    0.24869   0.26826   0.28100   0.28776   0.29216

  Beta  occ. eigenvalues --  -19.68936 -19.67707 -10.54814 -10.54666 -10.53511
  Beta  occ. eigenvalues --   -1.25373  -0.96610  -0.89363  -0.77570  -0.67605
  Beta  occ. eigenvalues --   -0.60926  -0.55885  -0.52645  -0.52489  -0.49141
  Beta  occ. eigenvalues --   -0.47879  -0.42762  -0.41751  -0.41030  -0.36621
  Beta  occ. eigenvalues --   -0.35644
  Beta virt. eigenvalues --   -0.07798   0.05182   0.08103   0.10304   0.11141
  Beta virt. eigenvalues --    0.12364   0.14422   0.15398   0.16323   0.18452
  Beta virt. eigenvalues --    0.20124   0.25350   0.27282   0.28266   0.28831

 Mulliken charges and spin densities:
               1          2
     1  O   -0.238565   0.053938
     2  O   -0.212183   0.390598
     3  C   -0.277201  -0.039677
     4  C   -0.363322   0.618635
     5  C   -0.360466   0.001725
     6  H    0.159125   0.009666
     7  H    0.142818   0.043302
     8  H    0.235835  -0.021452
     9  H    0.147287  -0.028453
    10  H    0.138627  -0.027784
    11  H    0.112269   0.002528
    12  H    0.123664  -0.000084
    13  H    0.121926   0.000251
    14  H    0.270185  -0.003192
 Sum of Mulliken charges =  -0.00000   1.00000

 Dipole moment (field-independent basis, Debye):
    X=              2.3726    Y=             -0.8103    Z=              0.1755  Tot=              2.5133
 Quadrupole moment (field-independent basis, Debye-Ang):
   XX=            -37.0902   YY=            -28.9855   ZZ=            -33.7676
   XY=              2.1879   XZ=             -0.0656   YZ=             -0.1442

  Exact polarizability:  67.487   8.010  55.947   1.165  -1.124  46.007
 Approx polarizability:  71.483   9.069  62.343   1.669  -3.262  57.048

 ******    1 imaginary frequencies (negative Signs) ******

                      1                      2                      3
                      A                      A                      A
 Frequencies --  -1862.0921                75.0196               106.4797
 Red. masses --      1.1003                 4.0673                 3.5653
 Frc consts  --      2.2478                 0.0135                 0.0238
 IR Inten    --   1241.0926                 5.2960                 3.8105

                      4                      5                      6
                      A                      A                      A
 Frequencies --    154.4776               219.9584               285.1404
 Red. masses --      1.7915                 1.7661                 1.6299
 Frc consts  --      0.0252                 0.0503                 0.0781
 IR Inten    --      0.2260                 0.5114                 0.4111

                      7                      8                      9
                      A                      A                      A
 Frequencies --    367.6567               404.1082               511.6509
 Red. masses --      1.2772                 1.7256                 1.4203
 Frc consts  --      0.1017                 0.1660                 0.2191
 IR Inten    --    101.2188                37.0980                17.9332

                     10                     11                     12
                      A                      A                      A
 Frequencies --    583.0854               757.3689               894.4498
 Red. masses --      2.7081                 1.1383                 2.1992
 Frc consts  --      0.5425                 0.3847                 1.0367
 IR Inten    --      1.2146                 7.3901                 3.3006

                     13                     14                     15
                      A                      A                      A
 Frequencies --    928.6048               947.9547              1078.6842
 Red. masses --      1.1759                 1.1688                 7.1033
 Frc consts  --      0.5974                 0.6188                 4.8697
 IR Inten    --      4.5056                 5.6146                20.6573

                     16                     17                     18
                      A                      A                      A
 Frequencies --   1085.2787              1116.5134              1188.7299
 Red. masses --      1.9602                 1.3810                 1.5748
 Frc consts  --      1.3603                 1.0143                 1.3111
 IR Inten    --     13.2156                22.2554                 0.8872

                     19                     20                     21
                      A                      A                      A
 Frequencies --   1198.9440              1287.6601              1369.9029
 Red. masses --      1.5765                 1.1833                 1.4215
 Frc consts  --      1.3352                 1.1560                 1.5718
 IR Inten    --      4.7247                 2.6645                 1.9115

                     22                     23                     24
                      A                      A                      A
 Frequencies --   1409.0361              1420.0742              1454.3734
 Red. masses --      1.1866                 1.1979                 1.0731
 Frc consts  --      1.3880                 1.4232                 1.3373
 IR Inten    --     33.5368                18.8007                 1.7052

                     25                     26                     27
                      A                      A                      A
 Frequencies --   1468.0254              1473.7631              1500.2392
 Red. masses --      1.1205                 1.0796                 1.0383
 Frc consts  --      1.4228                 1.3816                 1.3768
 IR Inten    --      8.5003                 4.1788                 7.1080

                     28                     29                     30
                      A                      A                      A
 Frequencies --   1512.2834              3022.8535              3058.8913
 Red. masses --      1.0547                 1.0697                 1.0363
 Frc consts  --      1.4211                 5.7592                 5.7129
 IR Inten    --      5.9786                10.8514                18.8112

                     31                     32                     33
                      A                      A                      A
 Frequencies --   3079.6033              3104.7274              3122.9423
 Red. masses --      1.0886                 1.0552                 1.1010
 Frc consts  --      6.0828                 5.9930                 6.3265
 IR Inten    --      2.8358                11.1734                23.1553

                     34                     35                     36
                      A                      A                      A
 Frequencies --   3140.8529              3191.7176              3799.1586
 Red. masses --      1.1021                 1.1115                 1.0683
 Frc consts  --      6.4057                 6.6710                 9.0851
 IR Inten    --     20.8997                10.1558                40.7901

 - Thermochemistry -
 -------------------
 Temperature   298.150 Kelvin.  Pressure   1.00000 Atm.
 Atom     1 has atomic number  8 and mass  15.99491

 Molecular mass:    77.06025 amu.
 Principal axes and moments of inertia in atomic units:
                           1         2         3
     Eigenvalues --   276.27881 663.07040 773.33827
           X            0.99992  -0.01141  -0.00574
           Y            0.01158   0.99944   0.03127
           Z            0.00538  -0.03133   0.99949
 This molecule is an asymmetric top.
 Rotational symmetry number  1.
 Rotational temperatures (Kelvin)      0.31350     0.13063     0.11200
 Rotational constants (GHZ):           6.53232     2.72179     2.33370
    1 imaginary frequencies ignored.
 Zero-point vibrational energy     300981.7 (Joules/Mol)
                                   71.93635 (Kcal/Mol)
 Warning -- explicit consideration of   9 degrees of freedom as
           vibrations may cause significant error
 Vibrational temperatures:    107.94   153.20   222.26   316.47   410.25
          (Kelvin)            528.98   581.42   736.15   838.93  1089.68
                             1286.91  1336.06  1363.90  1551.99  1561.47
                             1606.41  1710.32  1725.01  1852.66  1970.98
                             2027.29  2043.17  2092.52  2112.16  2120.42
                             2158.51  2175.84  4349.21  4401.06  4430.86
                             4467.01  4493.22  4518.99  4592.17  5466.14

 Zero-point correction=                           0.114638 (Hartree/Particle)
 Thermal correction to Energy=                    0.122026
 Thermal correction to Enthalpy=                  0.122970
 Thermal correction to Gibbs Free Energy=         0.082871
 Sum of electronic and zero-point Energies=           -269.870299
 Sum of electronic and thermal Energies=              -269.862911
 Sum of electronic and thermal Enthalpies=            -269.861967
 Sum of electronic and thermal Free Energies=         -269.902066

                     E (Thermal)             CV                S
                      KCal/Mol        Cal/Mol-Kelvin    Cal/Mol-Kelvin
 Total                   76.572             24.854             84.396
 Electronic               0.000              0.000              1.377
 Translational            0.889              2.981             38.941
 Rotational               0.889              2.981             26.452
 Vibrational             74.795             18.892             17.626
 Vibration     1          0.599              1.966              4.017
 Vibration     2          0.605              1.944              3.332
 Vibration     3          0.620              1.898              2.616
 Vibration     4          0.647              1.811              1.959
 Vibration     5          0.683              1.701              1.503
 Vibration     6          0.740              1.539              1.090
 Vibration     7          0.769              1.461              0.948
 Vibration     8          0.867              1.224              0.630
 Vibration     9          0.940              1.068              0.480

 Optimization completed.
    -- Stationary point found.
 Normal termination of Gaussian 16 at Fri Sep  6 11:02:34 2019.
