 Gaussian 16, Revision A.03,
 Gaussian 16:  EM64L-G16RevA.03 25-Dec-2016

 ----------------------------------------------------------------------
 #p m062x/cc-pVTZ opt=(ts,calcfc,noeigentest,maxcycles=900) freq scf=(m
 axcycle=900) IOP(7/33=1,2/16=3)
 ----------------------------------------------------------------------

 ------------------------------
 Gaussian input prepared by ASE
 ------------------------------
 Symbolic Z-matrix:
 Charge =  0 Multiplicity = 2

 SCF Done:  E(UM062X) =  -269.978878861     A.U. after   18 cycles
 SCF Done:  E(UM062X) =  -269.982963413     A.U. after   17 cycles
 SCF Done:  E(UM062X) =  -269.983584724     A.U. after   14 cycles
 SCF Done:  E(UM062X) =  -269.983712262     A.U. after   13 cycles
 SCF Done:  E(UM062X) =  -269.983749465     A.U. after   13 cycles
 SCF Done:  E(UM062X) =  -269.983761023     A.U. after   13 cycles
 SCF Done:  E(UM062X) =  -269.983761462     A.U. after   14 cycles
 SCF Done:  E(UM062X) =  -269.983772706     A.U. after   12 cycles
 SCF Done:  E(UM062X) =  -269.983766779     A.U. after   13 cycles
 SCF Done:  E(UM062X) =  -269.983780916     A.U. after   13 cycles
 SCF Done:  E(UM062X) =  -269.983785037     A.U. after   12 cycles
 SCF Done:  E(UM062X) =  -269.983785947     A.U. after   10 cycles
 SCF Done:  E(UM062X) =  -269.983786035     A.U. after    9 cycles
 SCF Done:  E(UM062X) =  -269.983786075     A.U. after    9 cycles
 Optimization completed.
    -- Stationary point found.
 Normal termination of Gaussian 16 at Fri Sep  6 02:28:52 2019.

 ----------------------------------------------------------------------
 #P Geom=AllCheck Guess=TCheck SCRF=Check Test GenChk UM062X/CC-pVTZ Fr
 eq
 ----------------------------------------------------------------------

 Structure from the checkpoint file:  "/scratch/harms.n/gauss_scrdir/Gau-39461.chk"
 ------------------------------
 Gaussian input prepared by ASE
 ------------------------------
 Charge =  0 Multiplicity = 2

                         Standard orientation:
 ---------------------------------------------------------------------
 Center     Atomic      Atomic             Coordinates (Angstroms)
 Number     Number       Type             X           Y           Z
 ---------------------------------------------------------------------
      1          8           0        2.003393    0.421197    0.418616
      2          8           0        1.535603   -0.327497   -0.653136
      3          6           0       -1.669823   -0.280825   -0.153320
      4          6           0       -0.589145   -1.192414    0.353667
      5          6           0       -1.309806    1.195287   -0.013919
      6          1           0       -2.589698   -0.485770    0.407126
      7          1           0       -1.893481   -0.511305   -1.195971
      8          1           0        0.547996   -0.819634   -0.241099
      9          1           0       -0.283600   -1.027497    1.385694
     10          1           0       -0.678440   -2.243949    0.096790
     11          1           0       -1.021442    1.428382    1.012582
     12          1           0       -2.147317    1.836674   -0.283544
     13          1           0       -0.474839    1.441122   -0.671475
     14          1           0        1.641496    1.300087    0.247497
 ---------------------------------------------------------------------

 SCF Done:  E(UM062X) =  -269.983786075     A.U. after    1 cycles

 The electronic state is 2-A.
 Alpha  occ. eigenvalues --  -19.68771 -19.68646 -10.55384 -10.54855 -10.53645
 Alpha  occ. eigenvalues --   -1.26868  -0.98910  -0.90150  -0.78873  -0.69031
 Alpha  occ. eigenvalues --   -0.62038  -0.58110  -0.54328  -0.53062  -0.51601
 Alpha  occ. eigenvalues --   -0.48167  -0.44298  -0.42402  -0.41370  -0.39392
 Alpha  occ. eigenvalues --   -0.37600  -0.29758
 Alpha virt. eigenvalues --    0.05732   0.07301   0.10646   0.11159   0.12005
 Alpha virt. eigenvalues --    0.13455   0.14562   0.16375   0.17483   0.20913
 Alpha virt. eigenvalues --    0.23421   0.27267   0.27984   0.29032   0.30797

  Beta  occ. eigenvalues --  -19.68620 -19.67676 -10.54897 -10.54853 -10.53633
  Beta  occ. eigenvalues --   -1.25179  -0.96454  -0.89376  -0.77673  -0.67927
  Beta  occ. eigenvalues --   -0.60736  -0.54747  -0.53510  -0.52237  -0.49708
  Beta  occ. eigenvalues --   -0.47438  -0.43360  -0.41855  -0.41064  -0.36255
  Beta  occ. eigenvalues --   -0.35519
  Beta virt. eigenvalues --   -0.07898   0.05842   0.07220   0.10702   0.11155
  Beta virt. eigenvalues --    0.12268   0.13470   0.14644   0.16524   0.18017
  Beta virt. eigenvalues --    0.21116   0.23890   0.27535   0.28192   0.29102

 Mulliken charges and spin densities:
               1          2
     1  O   -0.242731   0.047793
     2  O   -0.210759   0.397553
     3  C   -0.189775  -0.045214
     4  C   -0.396537   0.636005
     5  C   -0.405309   0.015623
     6  H    0.130221   0.038309
     7  H    0.132030   0.005991
     8  H    0.235347  -0.026251
     9  H    0.158795  -0.033141
    10  H    0.141591  -0.029563
    11  H    0.129711  -0.002980
    12  H    0.129459  -0.000611
    13  H    0.119229  -0.000755
    14  H    0.268728  -0.002758
 Sum of Mulliken charges =  -0.00000   1.00000

 Dipole moment (field-independent basis, Debye):
    X=             -2.4532    Y=              0.9500    Z=              0.4234  Tot=              2.6646
 Quadrupole moment (field-independent basis, Debye-Ang):
   XX=            -36.9046   YY=            -29.4106   ZZ=            -33.6016
   XY=              2.7115   XZ=              0.4833   YZ=              0.0484

  Exact polarizability:  71.391   8.328  54.878  -2.013  -0.250  44.712
 Approx polarizability:  73.904   8.915  60.384  -2.497   1.274  56.657

 ******    1 imaginary frequencies (negative Signs) ******

                      1                      2                      3
                      A                      A                      A
 Frequencies --  -1890.5201                66.7468               105.8227
 Red. masses --      1.0996                 2.8917                 3.0076
 Frc consts  --      2.3155                 0.0076                 0.0198
 IR Inten    --   1453.8741                 1.7686                 4.5291

                      4                      5                      6
                      A                      A                      A
 Frequencies --    140.8516               185.8930               275.2194
 Red. masses --      2.7819                 2.9428                 1.1084
 Frc consts  --      0.0325                 0.0599                 0.0495
 IR Inten    --      4.6004                 0.7039                 0.1339

                      7                      8                      9
                      A                      A                      A
 Frequencies --    367.6913               407.1580               574.4243
 Red. masses --      1.7344                 1.2698                 2.2338
 Frc consts  --      0.1382                 0.1240                 0.4343
 IR Inten    --     24.7313               117.8640                 0.1829

                     10                     11                     12
                      A                      A                      A
 Frequencies --    607.7528               761.7122               890.5848
 Red. masses --      1.7107                 1.1220                 1.8195
 Frc consts  --      0.3723                 0.3836                 0.8503
 IR Inten    --      0.4795                 6.7808                 3.0424

                     13                     14                     15
                      A                      A                      A
 Frequencies --    913.3429               935.4567              1072.8090
 Red. masses --      1.2990                 1.1497                 2.2529
 Frc consts  --      0.6385                 0.5928                 1.5277
 IR Inten    --      7.3105                 4.5193                38.5974

                     16                     17                     18
                      A                      A                      A
 Frequencies --   1077.9603              1117.9860              1200.4986
 Red. masses --      3.8781                 1.6319                 1.6923
 Frc consts  --      2.6551                 1.2017                 1.4370
 IR Inten    --      8.5557                 8.2010                 1.6034

                     19                     20                     21
                      A                      A                      A
 Frequencies --   1211.1861              1290.9752              1367.8026
 Red. masses --      1.3934                 1.1794                 1.4254
 Frc consts  --      1.2043                 1.1581                 1.5712
 IR Inten    --      6.8249                 2.5631                 2.5434

                     22                     23                     24
                      A                      A                      A
 Frequencies --   1406.1348              1419.3000              1455.1364
 Red. masses --      1.2577                 1.1233                 1.0516
 Frc consts  --      1.4652                 1.3332                 1.3119
 IR Inten    --      4.3805                52.0913                 3.8623

                     25                     26                     27
                      A                      A                      A
 Frequencies --   1459.9648              1479.5007              1501.3922
 Red. masses --      1.1378                 1.0777                 1.0466
 Frc consts  --      1.4289                 1.3899                 1.3900
 IR Inten    --      2.7723                 2.8589                 7.7588

                     28                     29                     30
                      A                      A                      A
 Frequencies --   1516.7598              3020.8094              3056.7457
 Red. masses --      1.0534                 1.0699                 1.0364
 Frc consts  --      1.4278                 5.7522                 5.7053
 IR Inten    --      4.4911                10.9379                16.3328

                     31                     32                     33
                      A                      A                      A
 Frequencies --   3089.6460              3101.4988              3126.0914
 Red. masses --      1.0861                 1.0588                 1.1024
 Frc consts  --      6.1085                 6.0008                 6.3475
 IR Inten    --      7.0523                11.4001                24.4036

                     34                     35                     36
                      A                      A                      A
 Frequencies --   3139.8372              3189.2742              3798.8121
 Red. masses --      1.1009                 1.1106                 1.0682
 Frc consts  --      6.3949                 6.6556                 9.0826
 IR Inten    --     23.1377                 9.9932                38.2466

 - Thermochemistry -
 -------------------
 Temperature   298.150 Kelvin.  Pressure   1.00000 Atm.
 Atom     1 has atomic number  8 and mass  15.99491

 Molecular mass:    77.06025 amu.
 Principal axes and moments of inertia in atomic units:
                           1         2         3
     Eigenvalues --   260.35078 699.98891 841.57693
           X            0.99998  -0.00343   0.00524
           Y            0.00353   0.99982  -0.01855
           Z           -0.00517   0.01857   0.99981
 This molecule is an asymmetric top.
 Rotational symmetry number  1.
 Rotational temperatures (Kelvin)      0.33268     0.12374     0.10292
 Rotational constants (GHZ):           6.93196     2.57824     2.14448
    1 imaginary frequencies ignored.
 Zero-point vibrational energy     301056.9 (Joules/Mol)
                                   71.95432 (Kcal/Mol)
 Warning -- explicit consideration of   9 degrees of freedom as
           vibrations may cause significant error
 Vibrational temperatures:     96.03   152.26   202.65   267.46   395.98
          (Kelvin)            529.03   585.81   826.47   874.42  1095.93
                             1281.35  1314.10  1345.91  1543.53  1550.94
                             1608.53  1727.25  1742.63  1857.43  1967.96
                             2023.11  2042.06  2093.62  2100.56  2128.67
                             2160.17  2182.28  4346.27  4397.98  4445.31
                             4462.37  4497.75  4517.53  4588.65  5465.64

 Zero-point correction=                           0.114667 (Hartree/Particle)
 Thermal correction to Energy=                    0.122109
 Thermal correction to Enthalpy=                  0.123053
 Thermal correction to Gibbs Free Energy=         0.082626
 Sum of electronic and zero-point Energies=           -269.869120
 Sum of electronic and thermal Energies=              -269.861677
 Sum of electronic and thermal Enthalpies=            -269.860733
 Sum of electronic and thermal Free Energies=         -269.901160

                     E (Thermal)             CV                S
                      KCal/Mol        Cal/Mol-Kelvin    Cal/Mol-Kelvin
 Total                   76.624             24.771             85.086
 Electronic               0.000              0.000              1.377
 Translational            0.889              2.981             38.941
 Rotational               0.889              2.981             26.531
 Vibrational             74.847             18.809             18.236
 Vibration     1          0.598              1.970              4.247
 Vibration     2          0.605              1.945              3.344
 Vibration     3          0.615              1.912              2.792
 Vibration     4          0.632              1.859              2.268
 Vibration     5          0.677              1.719              1.563
 Vibration     6          0.740              1.539              1.089
 Vibration     7          0.772              1.455              0.937
 Vibration     8          0.931              1.087              0.496
 Vibration     9          0.967              1.015              0.437

                           ! Non-Optimized Parameters !
 Normal termination of Gaussian 16 at Fri Sep  6 04:39:28 2019.
