 Gaussian 16, Revision A.03,
 Gaussian 16:  EM64L-G16RevA.03 25-Dec-2016

 ----------------------------------------------------------------------
 #p m062x/cc-pVTZ opt=(ts,calcfc,noeigentest,maxcycles=900) freq scf=(m
 axcycle=900) IOP(7/33=1,2/16=3)
 ----------------------------------------------------------------------

 ------------------------------
 Gaussian input prepared by ASE
 ------------------------------
 Symbolic Z-matrix:
 Charge =  0 Multiplicity = 2

 SCF Done:  E(UM062X) =  -269.977745048     A.U. after   18 cycles
 SCF Done:  E(UM062X) =  -269.981568480     A.U. after   18 cycles
 SCF Done:  E(UM062X) =  -269.983363119     A.U. after   16 cycles
 SCF Done:  E(UM062X) =  -269.984093687     A.U. after   18 cycles
 SCF Done:  E(UM062X) =  -269.984233470     A.U. after   14 cycles
 SCF Done:  E(UM062X) =  -269.984237187     A.U. after   10 cycles
 SCF Done:  E(UM062X) =  -269.983804746     A.U. after   15 cycles
 SCF Done:  E(UM062X) =  -269.984136106     A.U. after   14 cycles
 SCF Done:  E(UM062X) =  -269.984135121     A.U. after   17 cycles
 SCF Done:  E(UM062X) =  -269.983730676     A.U. after   15 cycles
 SCF Done:  E(UM062X) =  -269.984767980     A.U. after   14 cycles
 SCF Done:  E(UM062X) =  -269.984820349     A.U. after   14 cycles
 SCF Done:  E(UM062X) =  -269.984345770     A.U. after   15 cycles
 SCF Done:  E(UM062X) =  -269.984573525     A.U. after   17 cycles
 SCF Done:  E(UM062X) =  -269.984912953     A.U. after   14 cycles
 SCF Done:  E(UM062X) =  -269.984934396     A.U. after   12 cycles
 SCF Done:  E(UM062X) =  -269.984935368     A.U. after   12 cycles
 SCF Done:  E(UM062X) =  -269.984936954     A.U. after   11 cycles
 SCF Done:  E(UM062X) =  -269.984937036     A.U. after   10 cycles
 Optimization completed.
    -- Stationary point found.
 Normal termination of Gaussian 16 at Sat Sep  7 06:26:18 2019.

 ----------------------------------------------------------------------
 #P Geom=AllCheck Guess=TCheck SCRF=Check Test GenChk UM062X/CC-pVTZ Fr
 eq
 ----------------------------------------------------------------------

 Structure from the checkpoint file:  "/scratch/harms.n/gauss_scrdir/Gau-15835.chk"
 ------------------------------
 Gaussian input prepared by ASE
 ------------------------------
 Charge =  0 Multiplicity = 2

                         Standard orientation:
 ---------------------------------------------------------------------
 Center     Atomic      Atomic             Coordinates (Angstroms)
 Number     Number       Type             X           Y           Z
 ---------------------------------------------------------------------
      1          8           0        1.779956   -0.554256   -0.525914
      2          8           0        1.626681    0.245664    0.598495
      3          6           0       -1.269453    0.140169   -0.583088
      4          6           0       -0.577677    1.311184    0.049059
      5          6           0       -1.539345   -0.981666    0.413412
      6          1           0       -0.664768   -0.227012   -1.415286
      7          1           0       -2.215342    0.475376   -1.024562
      8          1           0        0.623797    0.827230    0.398425
      9          1           0       -0.306549    2.129588   -0.611640
     10          1           0       -0.981476    1.642363    1.003590
     11          1           0       -0.613372   -1.301895    0.894893
     12          1           0       -1.995307   -1.845308   -0.068166
     13          1           0       -2.209679   -0.643021    1.204151
     14          1           0        1.428452   -1.406707   -0.238353
 ---------------------------------------------------------------------

 SCF Done:  E(UM062X) =  -269.984937036     A.U. after    1 cycles

 The electronic state is 2-A.
 Alpha  occ. eigenvalues --  -19.69111 -19.68666 -10.55324 -10.54646 -10.53516
 Alpha  occ. eigenvalues --   -1.27073  -0.99086  -0.90138  -0.78747  -0.68658
 Alpha  occ. eigenvalues --   -0.62315  -0.58915  -0.53516  -0.53289  -0.51456
 Alpha  occ. eigenvalues --   -0.48430  -0.43726  -0.42250  -0.41403  -0.40078
 Alpha  occ. eigenvalues --   -0.37668  -0.29504
 Alpha virt. eigenvalues --    0.05127   0.08222   0.10262   0.11169   0.12281
 Alpha virt. eigenvalues --    0.14143   0.15094   0.16260   0.18274   0.20099
 Alpha virt. eigenvalues --    0.24870   0.26826   0.28100   0.28779   0.29216

  Beta  occ. eigenvalues --  -19.68936 -19.67707 -10.54813 -10.54665 -10.53511
  Beta  occ. eigenvalues --   -1.25374  -0.96610  -0.89362  -0.77569  -0.67604
  Beta  occ. eigenvalues --   -0.60925  -0.55886  -0.52644  -0.52490  -0.49140
  Beta  occ. eigenvalues --   -0.47879  -0.42761  -0.41750  -0.41029  -0.36623
  Beta  occ. eigenvalues --   -0.35642
  Beta virt. eigenvalues --   -0.07798   0.05182   0.08104   0.10304   0.11141
  Beta virt. eigenvalues --    0.12364   0.14422   0.15399   0.16323   0.18448
  Beta virt. eigenvalues --    0.20125   0.25350   0.27283   0.28267   0.28834

 Mulliken charges and spin densities:
               1          2
     1  O   -0.238573   0.053946
     2  O   -0.212184   0.390598
     3  C   -0.277155  -0.039680
     4  C   -0.363332   0.618601
     5  C   -0.360517   0.001719
     6  H    0.159126   0.009681
     7  H    0.142816   0.043298
     8  H    0.235855  -0.021440
     9  H    0.147267  -0.028445
    10  H    0.138620  -0.027782
    11  H    0.112264   0.002527
    12  H    0.123676  -0.000084
    13  H    0.121933   0.000250
    14  H    0.270204  -0.003191
 Sum of Mulliken charges =  -0.00000   1.00000

 Dipole moment (field-independent basis, Debye):
    X=             -2.3719    Y=             -0.8103    Z=             -0.1743  Tot=              2.5126
 Quadrupole moment (field-independent basis, Debye-Ang):
   XX=            -37.0894   YY=            -28.9849   ZZ=            -33.7677
   XY=             -2.1879   XZ=             -0.0637   YZ=              0.1415

  Exact polarizability:  67.482  -8.009  55.950   1.167   1.123  46.005
 Approx polarizability:  71.478  -9.068  62.348   1.671   3.262  57.045

 ******    1 imaginary frequencies (negative Signs) ******

                      1                      2                      3
                      A                      A                      A
 Frequencies --  -1861.8670                75.0930               106.5638
 Red. masses --      1.1003                 4.0680                 3.5660
 Frc consts  --      2.2473                 0.0135                 0.0239
 IR Inten    --   1240.6211                 5.3069                 3.7764

                      4                      5                      6
                      A                      A                      A
 Frequencies --    154.7751               220.0494               285.1811
 Red. masses --      1.7906                 1.7673                 1.6302
 Frc consts  --      0.0253                 0.0504                 0.0781
 IR Inten    --      0.2245                 0.5081                 0.4121

                      7                      8                      9
                      A                      A                      A
 Frequencies --    367.9239               404.1948               511.5752
 Red. masses --      1.2801                 1.7198                 1.4202
 Frc consts  --      0.1021                 0.1655                 0.2190
 IR Inten    --    100.6561                37.5682                18.0759

                     10                     11                     12
                      A                      A                      A
 Frequencies --    583.1527               757.4076               894.4574
 Red. masses --      2.7084                 1.1382                 2.1991
 Frc consts  --      0.5427                 0.3847                 1.0366
 IR Inten    --      1.2179                 7.3911                 3.2986

                     13                     14                     15
                      A                      A                      A
 Frequencies --    928.6308               947.9790              1078.7039
 Red. masses --      1.1761                 1.1687                 7.0744
 Frc consts  --      0.5975                 0.6188                 4.8500
 IR Inten    --      4.5091                 5.6146                20.5953

                     16                     17                     18
                      A                      A                      A
 Frequencies --   1085.2982              1116.5128              1188.7292
 Red. masses --      1.9616                 1.3812                 1.5751
 Frc consts  --      1.3613                 1.0145                 1.3114
 IR Inten    --     13.2616                22.2710                 0.8854

                     19                     20                     21
                      A                      A                      A
 Frequencies --   1198.9624              1287.6670              1369.9190
 Red. masses --      1.5762                 1.1833                 1.4215
 Frc consts  --      1.3350                 1.1560                 1.5717
 IR Inten    --      4.7260                 2.6626                 1.9127

                     22                     23                     24
                      A                      A                      A
 Frequencies --   1409.0366              1420.0760              1454.3816
 Red. masses --      1.1865                 1.1980                 1.0731
 Frc consts  --      1.3879                 1.4234                 1.3374
 IR Inten    --     33.5567                18.7833                 1.7079

                     25                     26                     27
                      A                      A                      A
 Frequencies --   1468.0381              1473.8080              1500.2409
 Red. masses --      1.1205                 1.0796                 1.0383
 Frc consts  --      1.4228                 1.3816                 1.3768
 IR Inten    --      8.5040                 4.1736                 7.1071

                     28                     29                     30
                      A                      A                      A
 Frequencies --   1512.3064              3022.8902              3058.8869
 Red. masses --      1.0547                 1.0697                 1.0363
 Frc consts  --      1.4212                 5.7593                 5.7129
 IR Inten    --      5.9735                10.8525                18.8170

                     31                     32                     33
                      A                      A                      A
 Frequencies --   3079.5764              3104.7070              3122.9282
 Red. masses --      1.0886                 1.0552                 1.1010
 Frc consts  --      6.0828                 5.9929                 6.3265
 IR Inten    --      2.8291                11.1745                23.1550

                     34                     35                     36
                      A                      A                      A
 Frequencies --   3140.8520              3191.6880              3799.1096
 Red. masses --      1.1021                 1.1115                 1.0683
 Frc consts  --      6.4057                 6.6709                 9.0849
 IR Inten    --     20.8958                10.1584                40.8107

 - Thermochemistry -
 -------------------
 Temperature   298.150 Kelvin.  Pressure   1.00000 Atm.
 Atom     1 has atomic number  8 and mass  15.99491

 Molecular mass:    77.06025 amu.
 Principal axes and moments of inertia in atomic units:
                           1         2         3
     Eigenvalues --   276.29393 662.93428 773.26361
           X            0.99992   0.01141  -0.00574
           Y           -0.01158   0.99944  -0.03129
           Z            0.00538   0.03136   0.99949
 This molecule is an asymmetric top.
 Rotational symmetry number  1.
 Rotational temperatures (Kelvin)      0.31348     0.13065     0.11201
 Rotational constants (GHZ):           6.53196     2.72235     2.33393
    1 imaginary frequencies ignored.
 Zero-point vibrational energy     300988.2 (Joules/Mol)
                                   71.93791 (Kcal/Mol)
 Warning -- explicit consideration of   9 degrees of freedom as
           vibrations may cause significant error
 Vibrational temperatures:    108.04   153.32   222.69   316.60   410.31
          (Kelvin)            529.36   581.55   736.04   839.03  1089.74
                             1286.92  1336.09  1363.93  1552.01  1561.50
                             1606.41  1710.32  1725.04  1852.67  1971.01
                             2027.29  2043.17  2092.53  2112.18  2120.48
                             2158.51  2175.87  4349.26  4401.06  4430.82
                             4466.98  4493.20  4518.99  4592.13  5466.07

 Zero-point correction=                           0.114640 (Hartree/Particle)
 Thermal correction to Energy=                    0.122027
 Thermal correction to Enthalpy=                  0.122971
 Thermal correction to Gibbs Free Energy=         0.082877
 Sum of electronic and zero-point Energies=           -269.870297
 Sum of electronic and thermal Energies=              -269.862910
 Sum of electronic and thermal Enthalpies=            -269.861966
 Sum of electronic and thermal Free Energies=         -269.902061

                     E (Thermal)             CV                S
                      KCal/Mol        Cal/Mol-Kelvin    Cal/Mol-Kelvin
 Total                   76.573             24.852             84.387
 Electronic               0.000              0.000              1.377
 Translational            0.889              2.981             38.941
 Rotational               0.889              2.981             26.452
 Vibrational             74.796             18.891             17.616
 Vibration     1          0.599              1.966              4.015
 Vibration     2          0.605              1.944              3.331
 Vibration     3          0.620              1.897              2.613
 Vibration     4          0.647              1.811              1.959
 Vibration     5          0.683              1.701              1.502
 Vibration     6          0.741              1.538              1.088
 Vibration     7          0.769              1.461              0.947
 Vibration     8          0.867              1.224              0.630
 Vibration     9          0.940              1.068              0.480

 Optimization completed.
    -- Stationary point found.
 Normal termination of Gaussian 16 at Sat Sep  7 07:49:34 2019.
