 Gaussian 16, Revision A.03,
 Gaussian 16:  EM64L-G16RevA.03 25-Dec-2016

 ----------------------------------------------------------------------
 #p m062x/cc-pVTZ Opt=(ModRedun,Loose,maxcycles=900) Int(Grid=SG1) scf=
 (maxcycle=900)
 ----------------------------------------------------------------------

 ------------------------------
 Gaussian input prepared by ASE
 ------------------------------
 Symbolic Z-matrix:
 Charge =  0 Multiplicity = 2

 SCF Done:  E(UM062X) =  -269.970557007     A.U. after   16 cycles
 SCF Done:  E(UM062X) =  -269.977038156     A.U. after   14 cycles
 SCF Done:  E(UM062X) =  -269.978389501     A.U. after   14 cycles
 SCF Done:  E(UM062X) =  -269.978085130     A.U. after   14 cycles
 SCF Done:  E(UM062X) =  -269.978657405     A.U. after   14 cycles
 SCF Done:  E(UM062X) =  -269.978650031     A.U. after   14 cycles
 SCF Done:  E(UM062X) =  -269.978749389     A.U. after   12 cycles
 SCF Done:  E(UM062X) =  -269.978780211     A.U. after   13 cycles
 SCF Done:  E(UM062X) =  -269.978792061     A.U. after   11 cycles
 SCF Done:  E(UM062X) =  -269.978796613     A.U. after   11 cycles
 SCF Done:  E(UM062X) =  -269.978796002     A.U. after   11 cycles
 SCF Done:  E(UM062X) =  -269.978797424     A.U. after   10 cycles
 Optimization completed.
    -- Stationary point found.

                         Standard orientation:
 ---------------------------------------------------------------------
 Center     Atomic      Atomic             Coordinates (Angstroms)
 Number     Number       Type             X           Y           Z
 ---------------------------------------------------------------------
      1          8           0        1.850143    0.754647    0.220934
      2          8           0        1.715215   -0.415168   -0.523449
      3          6           0       -1.671735   -0.413691   -0.121026
      4          6           0       -0.429503   -1.109790    0.359448
      5          6           0       -1.554502    1.105391   -0.063059
      6          1           0       -2.518051   -0.742157    0.494637
      7          1           0       -1.901946   -0.735845   -1.138267
      8          1           0        0.582759   -0.678977   -0.454856
      9          1           0       -0.048693   -0.776650    1.321494
     10          1           0       -0.392266   -2.188558    0.235128
     11          1           0       -1.372174    1.440725    0.958101
     12          1           0       -2.465358    1.584236   -0.417676
     13          1           0       -0.719956    1.451109   -0.671971
     14          1           0        2.247259    0.438828    1.041348
 ---------------------------------------------------------------------

 The electronic state is 2-A.
 Alpha  occ. eigenvalues --  -19.68540 -19.68374 -10.55460 -10.54576 -10.52592
 Alpha  occ. eigenvalues --   -1.26555  -0.99046  -0.89678  -0.78242  -0.68527
 Alpha  occ. eigenvalues --   -0.61399  -0.58488  -0.53835  -0.52108  -0.51894
 Alpha  occ. eigenvalues --   -0.47613  -0.43473  -0.41837  -0.40835  -0.39128
 Alpha  occ. eigenvalues --   -0.37390  -0.29002
 Alpha virt. eigenvalues --    0.05810   0.07339   0.10429   0.11769   0.12367
 Alpha virt. eigenvalues --    0.13613   0.15203   0.15687   0.17769   0.20331
 Alpha virt. eigenvalues --    0.22969   0.25919   0.28447   0.29188   0.31517

  Beta  occ. eigenvalues --  -19.68428 -19.67434 -10.54918 -10.54592 -10.52581
  Beta  occ. eigenvalues --   -1.24977  -0.96729  -0.88804  -0.76999  -0.67419
  Beta  occ. eigenvalues --   -0.60228  -0.55555  -0.52843  -0.51226  -0.49953
  Beta  occ. eigenvalues --   -0.46808  -0.42522  -0.41307  -0.40533  -0.37000
  Beta  occ. eigenvalues --   -0.34876
  Beta virt. eigenvalues --   -0.07010   0.06005   0.07296   0.10479   0.11843
  Beta virt. eigenvalues --    0.12306   0.13776   0.15576   0.15833   0.18013
  Beta virt. eigenvalues --    0.20818   0.23575   0.26216   0.28447   0.29193

 Mulliken charges and spin densities:
               1          2
     1  O   -0.244170   0.034257
     2  O   -0.224186   0.373450
     3  C   -0.205035  -0.043614
     4  C   -0.384366   0.667945
     5  C   -0.350929   0.014238
     6  H    0.125841   0.045469
     7  H    0.128730   0.007407
     8  H    0.241555  -0.022480
     9  H    0.140061  -0.039012
    10  H    0.146512  -0.031514
    11  H    0.111812  -0.002488
    12  H    0.116539  -0.000341
    13  H    0.132523  -0.001343
    14  H    0.265112  -0.001973
 Sum of Mulliken charges =  -0.00000   1.00000

 Dipole moment (field-independent basis, Debye):
    X=             -1.2621    Y=             -0.7457    Z=              1.7559  Tot=              2.2874
 Quadrupole moment (field-independent basis, Debye-Ang):
   XX=            -32.8620   YY=            -33.4868   ZZ=            -31.0380
   XY=              0.2133   XZ=              4.7125   YZ=              0.4392

 Normal termination of Gaussian 16 at Thu Sep  5 16:23:32 2019.
