 Gaussian 16, Revision A.03,
 Gaussian 16:  EM64L-G16RevA.03 25-Dec-2016

 ----------------------------------------------------------------------
 #p m062x/cc-pVTZ Opt=(ModRedun,Loose,maxcycles=900) Int(Grid=SG1) scf=
 (maxcycle=900)
 ----------------------------------------------------------------------

 ------------------------------
 Gaussian input prepared by ASE
 ------------------------------
 Symbolic Z-matrix:
 Charge =  0 Multiplicity = 2

 SCF Done:  E(UM062X) =  -269.970064034     A.U. after   16 cycles
 SCF Done:  E(UM062X) =  -269.976231304     A.U. after   14 cycles
 SCF Done:  E(UM062X) =  -269.977246745     A.U. after   14 cycles
 SCF Done:  E(UM062X) =  -269.977637537     A.U. after   14 cycles
 SCF Done:  E(UM062X) =  -269.977488144     A.U. after   14 cycles
 SCF Done:  E(UM062X) =  -269.977469927     A.U. after   12 cycles
 SCF Done:  E(UM062X) =  -269.977637192     A.U. after   13 cycles
 SCF Done:  E(UM062X) =  -269.977711144     A.U. after   15 cycles
 SCF Done:  E(UM062X) =  -269.974422156     A.U. after   17 cycles
 SCF Done:  E(UM062X) =  -269.975240912     A.U. after   15 cycles
 SCF Done:  E(UM062X) =  -269.978273222     A.U. after    8 cycles
 SCF Done:  E(UM062X) =  -269.978270526     A.U. after   12 cycles
 SCF Done:  E(UM062X) =  -269.978591263     A.U. after   14 cycles
 SCF Done:  E(UM062X) =  -269.978789024     A.U. after   13 cycles
 SCF Done:  E(UM062X) =  -269.978866744     A.U. after   13 cycles
 SCF Done:  E(UM062X) =  -269.978920053     A.U. after   12 cycles
 SCF Done:  E(UM062X) =  -269.978933130     A.U. after   11 cycles
 SCF Done:  E(UM062X) =  -269.978951632     A.U. after   12 cycles
 SCF Done:  E(UM062X) =  -269.978950277     A.U. after   12 cycles
 SCF Done:  E(UM062X) =  -269.978951239     A.U. after   11 cycles
 Optimization completed.
    -- Stationary point found.

                         Standard orientation:
 ---------------------------------------------------------------------
 Center     Atomic      Atomic             Coordinates (Angstroms)
 Number     Number       Type             X           Y           Z
 ---------------------------------------------------------------------
      1          8           0       -1.902871   -0.868712    0.093569
      2          8           0       -2.026263    0.481419   -0.212010
      3          6           0        1.110431   -0.121741   -0.480586
      4          6           0        0.308062    0.892841    0.281419
      5          6           0        2.487947   -0.337787    0.158185
      6          1           0        1.235481    0.204619   -1.513176
      7          1           0        0.566419   -1.065892   -0.501976
      8          1           0       -0.934472    0.879264   -0.292418
      9          1           0        0.065618    0.619215    1.305427
     10          1           0        0.628619    1.928503    0.189157
     11          1           0        3.058478    0.589721    0.173587
     12          1           0        3.060091   -1.080167   -0.396216
     13          1           0        2.385420   -0.687021    1.185311
     14          1           0       -2.071217   -0.889772    1.043730
 ---------------------------------------------------------------------

 The electronic state is 2-A.
 Alpha  occ. eigenvalues --  -19.68811 -19.68390 -10.55401 -10.54097 -10.53353
 Alpha  occ. eigenvalues --   -1.26858  -0.99082  -0.89660  -0.78523  -0.68145
 Alpha  occ. eigenvalues --   -0.61969  -0.58912  -0.54896  -0.52193  -0.50020
 Alpha  occ. eigenvalues --   -0.46857  -0.45544  -0.41777  -0.40488  -0.39581
 Alpha  occ. eigenvalues --   -0.37516  -0.28950
 Alpha virt. eigenvalues --    0.05426   0.07685   0.10204   0.11295   0.12329
 Alpha virt. eigenvalues --    0.14219   0.15690   0.16450   0.17428   0.19302
 Alpha virt. eigenvalues --    0.21707   0.25579   0.28390   0.30316   0.30985

  Beta  occ. eigenvalues --  -19.68684 -19.67454 -10.54858 -10.54118 -10.53279
  Beta  occ. eigenvalues --   -1.25271  -0.96752  -0.88772  -0.77049  -0.67362
  Beta  occ. eigenvalues --   -0.60538  -0.55942  -0.54219  -0.50499  -0.49179
  Beta  occ. eigenvalues --   -0.46201  -0.43925  -0.41270  -0.40071  -0.36977
  Beta  occ. eigenvalues --   -0.35301
  Beta virt. eigenvalues --   -0.07057   0.05638   0.07719   0.10282   0.11320
  Beta virt. eigenvalues --    0.12597   0.14318   0.15866   0.16532   0.17713
  Beta virt. eigenvalues --    0.19715   0.22230   0.25812   0.28339   0.30446

 Mulliken charges and spin densities:
               1          2
     1  O   -0.243113   0.037040
     2  O   -0.222958   0.374838
     3  C   -0.213801  -0.037673
     4  C   -0.410771   0.667236
     5  C   -0.324744   0.034898
     6  H    0.127676   0.001866
     7  H    0.144040   0.007462
     8  H    0.252908  -0.023358
     9  H    0.148225  -0.036036
    10  H    0.141603  -0.032058
    11  H    0.107688  -0.001688
    12  H    0.114910   0.011270
    13  H    0.109285  -0.001765
    14  H    0.269053  -0.002031
 Sum of Mulliken charges =  -0.00000   1.00000

 Dipole moment (field-independent basis, Debye):
    X=              1.6563    Y=              0.0080    Z=              1.6042  Tot=              2.3058
 Quadrupole moment (field-independent basis, Debye-Ang):
   XX=            -36.0952   YY=            -32.3881   ZZ=            -30.7945
   XY=              1.2859   XZ=             -4.3926   YZ=             -1.8337

 Normal termination of Gaussian 16 at Thu Sep  5 17:57:32 2019.
