 Gaussian 16, Revision A.03,
 Gaussian 16:  EM64L-G16RevA.03 25-Dec-2016

 ----------------------------------------------------------------------
 #p m062x/cc-pVTZ opt=(ts,calcfc,noeigentest,maxcycles=900) freq scf=(m
 axcycle=900) IOP(7/33=1,2/16=3)
 ----------------------------------------------------------------------

 ------------------------------
 Gaussian input prepared by ASE
 ------------------------------
 Symbolic Z-matrix:
 Charge =  0 Multiplicity = 2

 SCF Done:  E(UM062X) =  -269.978763933     A.U. after   18 cycles
 SCF Done:  E(UM062X) =  -269.982343864     A.U. after   17 cycles
 SCF Done:  E(UM062X) =  -269.982959478     A.U. after   15 cycles
 SCF Done:  E(UM062X) =  -269.983072057     A.U. after   14 cycles
 SCF Done:  E(UM062X) =  -269.983104219     A.U. after   13 cycles
 SCF Done:  E(UM062X) =  -269.983126595     A.U. after   13 cycles
 SCF Done:  E(UM062X) =  -269.983143271     A.U. after   13 cycles
 SCF Done:  E(UM062X) =  -269.983156574     A.U. after   13 cycles
 SCF Done:  E(UM062X) =  -269.983183858     A.U. after   13 cycles
 SCF Done:  E(UM062X) =  -269.983208407     A.U. after   13 cycles
 SCF Done:  E(UM062X) =  -269.983226977     A.U. after   15 cycles
 SCF Done:  E(UM062X) =  -269.983263482     A.U. after   13 cycles
 SCF Done:  E(UM062X) =  -269.983275956     A.U. after   13 cycles
 SCF Done:  E(UM062X) =  -269.983217632     A.U. after   14 cycles
 SCF Done:  E(UM062X) =  -269.983271396     A.U. after   13 cycles
 SCF Done:  E(UM062X) =  -269.983234504     A.U. after   15 cycles
 SCF Done:  E(UM062X) =  -269.983277907     A.U. after   14 cycles
 SCF Done:  E(UM062X) =  -269.983280648     A.U. after   12 cycles
 SCF Done:  E(UM062X) =  -269.983281436     A.U. after   13 cycles
 Optimization completed.
    -- Stationary point found.
 Normal termination of Gaussian 16 at Fri Sep  6 15:41:24 2019.

 ----------------------------------------------------------------------
 #P Geom=AllCheck Guess=TCheck SCRF=Check Test GenChk UM062X/CC-pVTZ Fr
 eq
 ----------------------------------------------------------------------

 Structure from the checkpoint file:  "/scratch/harms.n/gauss_scrdir/Gau-35279.chk"
 ------------------------------
 Gaussian input prepared by ASE
 ------------------------------
 Charge =  0 Multiplicity = 2

                         Standard orientation:
 ---------------------------------------------------------------------
 Center     Atomic      Atomic             Coordinates (Angstroms)
 Number     Number       Type             X           Y           Z
 ---------------------------------------------------------------------
      1          8           0       -2.093441   -0.808658    0.144193
      2          8           0       -1.978447    0.494646   -0.321122
      3          6           0        1.085622   -0.283606   -0.295520
      4          6           0        0.417415    0.941462    0.257899
      5          6           0        2.574823   -0.324898    0.063211
      6          1           0        0.967200   -0.305770   -1.379496
      7          1           0        0.588861   -1.173922    0.093276
      8          1           0       -0.874057    0.793681   -0.054344
      9          1           0        0.393163    1.014750    1.343573
     10          1           0        0.671073    1.884406   -0.221284
     11          1           0        3.095215    0.546066   -0.335513
     12          1           0        3.046578   -1.218599   -0.344281
     13          1           0        2.712917   -0.331182    1.144659
     14          1           0       -2.493009   -0.695082    1.015299
 ---------------------------------------------------------------------

 SCF Done:  E(UM062X) =  -269.983281436     A.U. after    1 cycles

 The electronic state is 2-A.
 Alpha  occ. eigenvalues --  -19.68874 -19.68528 -10.55229 -10.53947 -10.53179
 Alpha  occ. eigenvalues --   -1.26900  -0.98958  -0.89562  -0.78494  -0.68008
 Alpha  occ. eigenvalues --   -0.62077  -0.58708  -0.54747  -0.52193  -0.50033
 Alpha  occ. eigenvalues --   -0.46741  -0.45696  -0.41652  -0.40299  -0.39580
 Alpha  occ. eigenvalues --   -0.37553  -0.29533
 Alpha virt. eigenvalues --    0.05898   0.07649   0.10350   0.11271   0.12714
 Alpha virt. eigenvalues --    0.13891   0.15683   0.16407   0.17141   0.19606
 Alpha virt. eigenvalues --    0.23783   0.26076   0.28615   0.29912   0.31172

  Beta  occ. eigenvalues --  -19.68714 -19.67567 -10.54713 -10.53971 -10.53112
  Beta  occ. eigenvalues --   -1.25217  -0.96494  -0.88709  -0.77072  -0.67265
  Beta  occ. eigenvalues --   -0.60629  -0.55261  -0.54186  -0.50374  -0.49282
  Beta  occ. eigenvalues --   -0.46196  -0.44103  -0.41169  -0.39905  -0.36289
  Beta  occ. eigenvalues --   -0.35572
  Beta virt. eigenvalues --   -0.07826   0.05954   0.07703   0.10396   0.11310
  Beta virt. eigenvalues --    0.12774   0.14168   0.15840   0.16643   0.17372
  Beta virt. eigenvalues --    0.19871   0.24105   0.26414   0.28660   0.30069

 Mulliken charges and spin densities:
               1          2
     1  O   -0.240148   0.049915
     2  O   -0.214152   0.393208
     3  C   -0.220060  -0.037247
     4  C   -0.399546   0.636326
     5  C   -0.335812   0.031499
     6  H    0.137587   0.003353
     7  H    0.139429   0.005327
     8  H    0.246600  -0.024033
     9  H    0.140483  -0.032801
    10  H    0.139425  -0.030581
    11  H    0.111714  -0.001483
    12  H    0.117892   0.010376
    13  H    0.110066  -0.001414
    14  H    0.266520  -0.002445
 Sum of Mulliken charges =  -0.00000   1.00000

 Dipole moment (field-independent basis, Debye):
    X=              1.2316    Y=              0.1227    Z=              1.7842  Tot=              2.1715
 Quadrupole moment (field-independent basis, Debye-Ang):
   XX=            -33.6464   YY=            -33.0097   ZZ=            -30.7912
   XY=              1.0630   XZ=             -5.1676   YZ=             -1.1087

  Exact polarizability:  81.658   5.941  50.838   0.944  -0.383  44.398
 Approx polarizability:  76.164   6.294  61.047   1.918  -1.640  54.143

 ******    1 imaginary frequencies (negative Signs) ******

                      1                      2                      3
                      A                      A                      A
 Frequencies --  -1870.5277                34.0330                67.9395
 Red. masses --      1.1003                 2.1785                 3.0098
 Frc consts  --      2.2682                 0.0015                 0.0082
 IR Inten    --   1630.3172                 3.6157                 2.0765

                      4                      5                      6
                      A                      A                      A
 Frequencies --    104.0188               204.0762               246.9980
 Red. masses --      4.4760                 2.8623                 1.0763
 Frc consts  --      0.0285                 0.0702                 0.0387
 IR Inten    --      5.8754                 5.4780                 0.0164

                      7                      8                      9
                      A                      A                      A
 Frequencies --    334.9848               413.1923               550.0671
 Red. masses --      2.2155                 1.3484                 1.2650
 Frc consts  --      0.1465                 0.1356                 0.2255
 IR Inten    --     11.9262                96.8859                 2.2220

                     10                     11                     12
                      A                      A                      A
 Frequencies --    590.6451               754.9663               906.5467
 Red. masses --      2.8886                 1.0742                 1.3257
 Frc consts  --      0.5937                 0.3607                 0.6419
 IR Inten    --      7.3415                 2.9424                 3.0917

                     13                     14                     15
                      A                      A                      A
 Frequencies --    912.0038               967.7674              1069.4098
 Red. masses --      1.3837                 1.5201                 2.2203
 Frc consts  --      0.6781                 0.8388                 1.4961
 IR Inten    --      4.1269                 8.9335                 5.5815

                     16                     17                     18
                      A                      A                      A
 Frequencies --   1078.6090              1123.7262              1169.2716
 Red. masses --      6.6517                 1.6771                 1.3470
 Frc consts  --      4.5594                 1.2477                 1.0850
 IR Inten    --     28.7126                11.3810                 3.9689

                     19                     20                     21
                      A                      A                      A
 Frequencies --   1214.3026              1316.0922              1348.2409
 Red. masses --      1.5753                 1.1146                 1.4168
 Frc consts  --      1.3685                 1.1374                 1.5174
 IR Inten    --      0.4454                 0.3405                 0.1423

                     22                     23                     24
                      A                      A                      A
 Frequencies --   1403.4308              1415.7951              1454.4068
 Red. masses --      1.2195                 1.1140                 1.0407
 Frc consts  --      1.4151                 1.3156                 1.2970
 IR Inten    --      0.5521                51.7647                 6.6478

                     25                     26                     27
                      A                      A                      A
 Frequencies --   1464.0326              1494.5652              1500.0981
 Red. masses --      1.1660                 1.0520                 1.0397
 Frc consts  --      1.4725                 1.3845                 1.3784
 IR Inten    --      2.5751                 2.6797                 7.7592

                     28                     29                     30
                      A                      A                      A
 Frequencies --   1511.6815              3060.6592              3071.6272
 Red. masses --      1.0909                 1.0348                 1.0585
 Frc consts  --      1.4688                 5.7111                 5.8840
 IR Inten    --      6.2964                27.6849                 5.7258

                     31                     32                     33
                      A                      A                      A
 Frequencies --   3096.7118              3106.5405              3135.8748
 Red. masses --      1.0535                 1.1031                 1.1037
 Frc consts  --      5.9525                 6.2720                 6.3945
 IR Inten    --     14.9942                 1.0839                27.2781

                     34                     35                     36
                      A                      A                      A
 Frequencies --   3136.6122              3180.2176              3812.2191
 Red. masses --      1.1023                 1.1114                 1.0684
 Frc consts  --      6.3896                 6.6224                 9.1480
 IR Inten    --     22.3003                16.1175                63.6665

 - Thermochemistry -
 -------------------
 Temperature   298.150 Kelvin.  Pressure   1.00000 Atm.
 Atom     1 has atomic number  8 and mass  15.99491

 Molecular mass:    77.06025 amu.
 Principal axes and moments of inertia in atomic units:
                           1         2         3
     Eigenvalues --   166.36928 975.864101069.23110
           X            0.99995  -0.00488  -0.00883
           Y            0.00501   0.99988   0.01458
           Z            0.00875  -0.01462   0.99985
 This molecule is an asymmetric top.
 Rotational symmetry number  1.
 Rotational temperatures (Kelvin)      0.52061     0.08876     0.08101
 Rotational constants (GHZ):          10.84780     1.84938     1.68789
    1 imaginary frequencies ignored.
 Zero-point vibrational energy     300569.9 (Joules/Mol)
                                   71.83793 (Kcal/Mol)
 Warning -- explicit consideration of   9 degrees of freedom as
           vibrations may cause significant error
 Vibrational temperatures:     48.97    97.75   149.66   293.62   355.38
          (Kelvin)            481.97   594.49   791.42   849.81  1086.23
                             1304.32  1312.17  1392.40  1538.64  1551.88
                             1616.79  1682.32  1747.11  1893.56  1939.82
                             2019.22  2037.01  2092.57  2106.42  2150.35
                             2158.31  2174.97  4403.61  4419.39  4455.48
                             4469.62  4511.82  4512.89  4575.62  5484.93

 Zero-point correction=                           0.114481 (Hartree/Particle)
 Thermal correction to Energy=                    0.122193
 Thermal correction to Enthalpy=                  0.123138
 Thermal correction to Gibbs Free Energy=         0.081231
 Sum of electronic and zero-point Energies=           -269.868800
 Sum of electronic and thermal Energies=              -269.861088
 Sum of electronic and thermal Enthalpies=            -269.860144
 Sum of electronic and thermal Free Energies=         -269.902051

                     E (Thermal)             CV                S
                      KCal/Mol        Cal/Mol-Kelvin    Cal/Mol-Kelvin
 Total                   76.678             24.973             88.200
 Electronic               0.000              0.000              1.377
 Translational            0.889              2.981             38.941
 Rotational               0.889              2.981             26.654
 Vibrational             74.900             19.011             21.228
 Vibration     1          0.594              1.983              5.579
 Vibration     2          0.598              1.969              4.212
 Vibration     3          0.605              1.946              3.378
 Vibration     4          0.640              1.834              2.096
 Vibration     5          0.661              1.768              1.752
 Vibration     6          0.716              1.606              1.236
 Vibration     7          0.777              1.442              0.915
 Vibration     8          0.905              1.140              0.544
 Vibration     9          0.948              1.052              0.466

 Optimization completed.
    -- Stationary point found.
 Normal termination of Gaussian 16 at Fri Sep  6 17:08:51 2019.
