 Gaussian 16, Revision A.03,
 Gaussian 16:  EM64L-G16RevA.03 25-Dec-2016

 ----------------------------------------------------------------------
 #p m062x/cc-pVTZ Opt=(ModRedun,Loose,maxcycles=900) Int(Grid=SG1) scf=
 (maxcycle=900)
 ----------------------------------------------------------------------

 ------------------------------
 Gaussian input prepared by ASE
 ------------------------------
 Symbolic Z-matrix:
 Charge =  0 Multiplicity = 2

 SCF Done:  E(UM062X) =  -269.967712612     A.U. after   16 cycles
 SCF Done:  E(UM062X) =  -269.974869887     A.U. after   14 cycles
 SCF Done:  E(UM062X) =  -269.975955698     A.U. after   14 cycles
 SCF Done:  E(UM062X) =  -269.976407681     A.U. after   14 cycles
 SCF Done:  E(UM062X) =  -269.976546739     A.U. after   13 cycles
 SCF Done:  E(UM062X) =  -269.976648557     A.U. after   14 cycles
 SCF Done:  E(UM062X) =  -269.960494956     A.U. after   14 cycles
 SCF Done:  E(UM062X) =  -269.973422134     A.U. after   15 cycles
 SCF Done:  E(UM062X) =  -269.976685011     A.U. after   10 cycles
 SCF Done:  E(UM062X) =  -269.976982068     A.U. after   15 cycles
 SCF Done:  E(UM062X) =  -269.949082049     A.U. after   13 cycles
 SCF Done:  E(UM062X) =  -269.978033259     A.U. after   15 cycles
 SCF Done:  E(UM062X) =  -269.968773741     A.U. after   17 cycles
 SCF Done:  E(UM062X) =  -269.978359972     A.U. after   13 cycles
 SCF Done:  E(UM062X) =  -269.978530341     A.U. after   12 cycles
 SCF Done:  E(UM062X) =  -269.978362220     A.U. after   13 cycles
 SCF Done:  E(UM062X) =  -269.978588456     A.U. after   12 cycles
 SCF Done:  E(UM062X) =  -269.978628520     A.U. after   12 cycles
 SCF Done:  E(UM062X) =  -269.978657873     A.U. after   12 cycles
 SCF Done:  E(UM062X) =  -269.978661891     A.U. after   10 cycles
 Optimization completed.
    -- Stationary point found.

                         Standard orientation:
 ---------------------------------------------------------------------
 Center     Atomic      Atomic             Coordinates (Angstroms)
 Number     Number       Type             X           Y           Z
 ---------------------------------------------------------------------
      1          8           0        1.951656    0.817440    0.265012
      2          8           0        2.031345   -0.518715   -0.117696
      3          6           0       -1.088285    0.267848   -0.370954
      4          6           0       -0.341401   -0.938422    0.118394
      5          6           0       -2.526116    0.287032    0.162119
      6          1           0       -1.108182    0.279890   -1.461850
      7          1           0       -0.570551    1.169080   -0.042251
      8          1           0        0.936622   -0.834122   -0.360295
      9          1           0       -0.155830   -0.971066    1.187145
     10          1           0       -0.661955   -1.895464   -0.290214
     11          1           0       -3.077546   -0.589874   -0.174765
     12          1           0       -3.054259    1.175592   -0.180445
     13          1           0       -2.531082    0.287822    1.251583
     14          1           0        2.093590    1.289591   -0.564788
 ---------------------------------------------------------------------

 The electronic state is 2-A.
 Alpha  occ. eigenvalues --  -19.68653 -19.68252 -10.55190 -10.54383 -10.53445
 Alpha  occ. eigenvalues --   -1.26600  -0.99009  -0.89741  -0.78451  -0.68127
 Alpha  occ. eigenvalues --   -0.62324  -0.58515  -0.54660  -0.52029  -0.50046
 Alpha  occ. eigenvalues --   -0.46747  -0.45653  -0.41845  -0.40828  -0.39358
 Alpha  occ. eigenvalues --   -0.37437  -0.28764
 Alpha virt. eigenvalues --    0.05857   0.07580   0.10240   0.11070   0.12404
 Alpha virt. eigenvalues --    0.13772   0.15339   0.16409   0.17415   0.19122
 Alpha virt. eigenvalues --    0.22404   0.25317   0.28062   0.30298   0.30699

  Beta  occ. eigenvalues --  -19.68528 -19.67323 -10.54649 -10.54404 -10.53369
  Beta  occ. eigenvalues --   -1.25019  -0.96676  -0.88869  -0.76966  -0.67310
  Beta  occ. eigenvalues --   -0.60999  -0.55504  -0.53746  -0.50462  -0.49346
  Beta  occ. eigenvalues --   -0.46160  -0.44003  -0.41327  -0.40288  -0.36135
  Beta  occ. eigenvalues --   -0.35926
  Beta virt. eigenvalues --   -0.06923   0.05964   0.07595   0.10310   0.11134
  Beta virt. eigenvalues --    0.12682   0.13930   0.15410   0.16559   0.17663
  Beta virt. eigenvalues --    0.19448   0.23028   0.25585   0.27995   0.30460

 Mulliken charges and spin densities:
               1          2
     1  O   -0.244996   0.036624
     2  O   -0.225792   0.370235
     3  C   -0.240005  -0.036215
     4  C   -0.375940   0.664494
     5  C   -0.333038   0.035455
     6  H    0.129056   0.003031
     7  H    0.133324   0.005969
     8  H    0.239291  -0.019081
     9  H    0.167557  -0.037454
    10  H    0.136820  -0.028855
    11  H    0.111262  -0.001506
    12  H    0.114573   0.011434
    13  H    0.118035  -0.001974
    14  H    0.269853  -0.002157
 Sum of Mulliken charges =  -0.00000   1.00000

 Dipole moment (field-independent basis, Debye):
    X=             -1.7615    Y=              0.7548    Z=             -1.3698  Tot=              2.3556
 Quadrupole moment (field-independent basis, Debye-Ang):
   XX=            -36.3439   YY=            -30.6975   ZZ=            -32.2133
   XY=              2.8968   XZ=             -2.6116   YZ=             -1.6784

 Normal termination of Gaussian 16 at Thu Sep  5 18:24:17 2019.
