 Gaussian 16, Revision A.03,
 Gaussian 16:  EM64L-G16RevA.03 25-Dec-2016

 ----------------------------------------------------------------------
 #p m062x/cc-pVTZ Opt=(ModRedun,Loose,maxcycles=900) Int(Grid=SG1) scf=
 (maxcycle=900)
 ----------------------------------------------------------------------

 ------------------------------
 Gaussian input prepared by ASE
 ------------------------------
 Symbolic Z-matrix:
 Charge =  0 Multiplicity = 2

 SCF Done:  E(UM062X) =  -269.964630011     A.U. after   16 cycles
 SCF Done:  E(UM062X) =  -269.971791144     A.U. after   14 cycles
 SCF Done:  E(UM062X) =  -269.973480271     A.U. after   15 cycles
 SCF Done:  E(UM062X) =  -269.973884136     A.U. after   14 cycles
 SCF Done:  E(UM062X) =  -269.973962443     A.U. after   13 cycles
 SCF Done:  E(UM062X) =  -269.974301745     A.U. after   14 cycles
 SCF Done:  E(UM062X) =  -269.974470745     A.U. after   14 cycles
 SCF Done:  E(UM062X) =  -269.974617945     A.U. after   13 cycles
 SCF Done:  E(UM062X) =  -269.975542817     A.U. after   15 cycles
 SCF Done:  E(UM062X) =  -269.955545325     A.U. after   15 cycles
 SCF Done:  E(UM062X) =  -269.979006407     A.U. after   12 cycles
 SCF Done:  E(UM062X) =  -269.979040470     A.U. after   12 cycles
 SCF Done:  E(UM062X) =  -269.979164308     A.U. after   12 cycles
 SCF Done:  E(UM062X) =  -269.978739175     A.U. after   13 cycles
 SCF Done:  E(UM062X) =  -269.979383574     A.U. after   11 cycles
 SCF Done:  E(UM062X) =  -269.979448424     A.U. after   14 cycles
 SCF Done:  E(UM062X) =  -269.979545028     A.U. after   14 cycles
 SCF Done:  E(UM062X) =  -269.979622727     A.U. after   12 cycles
 SCF Done:  E(UM062X) =  -269.979677457     A.U. after   11 cycles
 SCF Done:  E(UM062X) =  -269.979691307     A.U. after   11 cycles
 Optimization completed.
    -- Stationary point found.

                         Standard orientation:
 ---------------------------------------------------------------------
 Center     Atomic      Atomic             Coordinates (Angstroms)
 Number     Number       Type             X           Y           Z
 ---------------------------------------------------------------------
      1          8           0        1.955368   -0.766052   -0.283160
      2          8           0        1.838358    0.373078    0.508232
      3          6           0       -1.035333   -0.139442    0.419958
      4          6           0       -0.341264    0.903078   -0.402902
      5          6           0       -2.464440   -0.374794   -0.080151
      6          1           0       -1.056778    0.170111    1.465437
      7          1           0       -0.470765   -1.069823    0.372614
      8          1           0        0.949390    0.968601    0.047968
      9          1           0       -0.140709    0.626856   -1.436801
     10          1           0       -0.708833    1.921402   -0.293045
     11          1           0       -3.048965    0.543628   -0.037751
     12          1           0       -2.968070   -1.126675    0.525453
     13          1           0       -2.459691   -0.719172   -1.114454
     14          1           0        2.600839   -0.504180   -0.951426
 ---------------------------------------------------------------------

 The electronic state is 2-A.
 Alpha  occ. eigenvalues --  -19.68631 -19.68319 -10.55337 -10.53572 -10.52951
 Alpha  occ. eigenvalues --   -1.26632  -0.99030  -0.89296  -0.78237  -0.67857
 Alpha  occ. eigenvalues --   -0.62127  -0.58714  -0.54302  -0.52003  -0.49797
 Alpha  occ. eigenvalues --   -0.46529  -0.45192  -0.41428  -0.39825  -0.39433
 Alpha  occ. eigenvalues --   -0.37502  -0.29023
 Alpha virt. eigenvalues --    0.06188   0.07698   0.10585   0.11626   0.12280
 Alpha virt. eigenvalues --    0.13880   0.15641   0.16714   0.17344   0.20102
 Alpha virt. eigenvalues --    0.22339   0.25915   0.29012   0.29866   0.31266

  Beta  occ. eigenvalues --  -19.68518 -19.67404 -10.54793 -10.53603 -10.52888
  Beta  occ. eigenvalues --   -1.25086  -0.96758  -0.88415  -0.76746  -0.67092
  Beta  occ. eigenvalues --   -0.60821  -0.55569  -0.53483  -0.50438  -0.49000
  Beta  occ. eigenvalues --   -0.45872  -0.43809  -0.40932  -0.39612  -0.36258
  Beta  occ. eigenvalues --   -0.35923
  Beta virt. eigenvalues --   -0.07067   0.06273   0.07715   0.10600   0.11629
  Beta virt. eigenvalues --    0.12516   0.14089   0.15785   0.16725   0.17549
  Beta virt. eigenvalues --    0.20355   0.22904   0.26278   0.29001   0.30059

 Mulliken charges and spin densities:
               1          2
     1  O   -0.245290   0.032746
     2  O   -0.228449   0.367260
     3  C   -0.209564  -0.043708
     4  C   -0.401104   0.691944
     5  C   -0.331994   0.027110
     6  H    0.132664   0.004450
     7  H    0.149874   0.005772
     8  H    0.246286  -0.023757
     9  H    0.151282  -0.034125
    10  H    0.137366  -0.034185
    11  H    0.105041  -0.001564
    12  H    0.114747   0.010674
    13  H    0.110852  -0.001233
    14  H    0.268288  -0.001384
 Sum of Mulliken charges =  -0.00000   1.00000

 Dipole moment (field-independent basis, Debye):
    X=             -0.6094    Y=              0.6582    Z=             -1.7153  Tot=              1.9356
 Quadrupole moment (field-independent basis, Debye-Ang):
   XX=            -31.3416   YY=            -32.9366   ZZ=            -31.6785
   XY=             -0.1686   XZ=             -5.2032   YZ=              0.3194

 Normal termination of Gaussian 16 at Fri Sep  6 01:43:31 2019.
