 Gaussian 16, Revision A.03,
 Gaussian 16:  EM64L-G16RevA.03 25-Dec-2016

 ----------------------------------------------------------------------
 #p m062x/cc-pVTZ opt=(ts,calcfc,noeigentest,maxcycles=900) freq scf=(m
 axcycle=900) IOP(7/33=1,2/16=3)
 ----------------------------------------------------------------------

 ------------------------------
 Gaussian input prepared by ASE
 ------------------------------
 Symbolic Z-matrix:
 Charge =  0 Multiplicity = 2

 SCF Done:  E(UM062X) =  -269.978880257     A.U. after   18 cycles
 SCF Done:  E(UM062X) =  -269.982954760     A.U. after   17 cycles
 SCF Done:  E(UM062X) =  -269.983579306     A.U. after   15 cycles
 SCF Done:  E(UM062X) =  -269.983711906     A.U. after   13 cycles
 SCF Done:  E(UM062X) =  -269.983750505     A.U. after   13 cycles
 SCF Done:  E(UM062X) =  -269.983762006     A.U. after   13 cycles
 SCF Done:  E(UM062X) =  -269.983755268     A.U. after   14 cycles
 SCF Done:  E(UM062X) =  -269.983773113     A.U. after   13 cycles
 SCF Done:  E(UM062X) =  -269.983763876     A.U. after   13 cycles
 SCF Done:  E(UM062X) =  -269.983782163     A.U. after   12 cycles
 SCF Done:  E(UM062X) =  -269.983785766     A.U. after   11 cycles
 SCF Done:  E(UM062X) =  -269.983786154     A.U. after   10 cycles
 SCF Done:  E(UM062X) =  -269.983786181     A.U. after    8 cycles
 Optimization completed.
    -- Stationary point found.
 Normal termination of Gaussian 16 at Fri Sep  6 02:06:37 2019.

 ----------------------------------------------------------------------
 #P Geom=AllCheck Guess=TCheck SCRF=Check Test GenChk UM062X/CC-pVTZ Fr
 eq
 ----------------------------------------------------------------------

 Structure from the checkpoint file:  "/scratch/harms.n/gauss_scrdir/Gau-48567.chk"
 ------------------------------
 Gaussian input prepared by ASE
 ------------------------------
 Charge =  0 Multiplicity = 2

                         Standard orientation:
 ---------------------------------------------------------------------
 Center     Atomic      Atomic             Coordinates (Angstroms)
 Number     Number       Type             X           Y           Z
 ---------------------------------------------------------------------
      1          8           0        2.002233    0.421576    0.419119
      2          8           0        1.536266   -0.327389   -0.653228
      3          6           0       -1.669928   -0.281163   -0.152656
      4          6           0       -0.588430   -1.192367    0.353269
      5          6           0       -1.309832    1.195052   -0.014460
      6          1           0       -2.588971   -0.485917    0.409226
      7          1           0       -1.895075   -0.512160   -1.194870
      8          1           0        0.547997   -0.819426   -0.242638
      9          1           0       -0.281573   -1.026938    1.384831
     10          1           0       -0.677814   -2.244025    0.096936
     11          1           0       -1.019995    1.428621    1.011525
     12          1           0       -2.147784    1.836256   -0.283146
     13          1           0       -0.475842    1.440662   -0.673343
     14          1           0        1.640208    1.300307    0.247435
 ---------------------------------------------------------------------

 SCF Done:  E(UM062X) =  -269.983786181     A.U. after    1 cycles

 The electronic state is 2-A.
 Alpha  occ. eigenvalues --  -19.68772 -19.68645 -10.55383 -10.54856 -10.53647
 Alpha  occ. eigenvalues --   -1.26869  -0.98909  -0.90151  -0.78873  -0.69033
 Alpha  occ. eigenvalues --   -0.62038  -0.58109  -0.54330  -0.53063  -0.51600
 Alpha  occ. eigenvalues --   -0.48166  -0.44299  -0.42403  -0.41371  -0.39393
 Alpha  occ. eigenvalues --   -0.37600  -0.29758
 Alpha virt. eigenvalues --    0.05732   0.07301   0.10647   0.11159   0.12006
 Alpha virt. eigenvalues --    0.13455   0.14559   0.16376   0.17480   0.20910
 Alpha virt. eigenvalues --    0.23424   0.27263   0.27980   0.29028   0.30797

  Beta  occ. eigenvalues --  -19.68621 -19.67675 -10.54898 -10.54853 -10.53635
  Beta  occ. eigenvalues --   -1.25180  -0.96453  -0.89376  -0.77673  -0.67928
  Beta  occ. eigenvalues --   -0.60736  -0.54744  -0.53512  -0.52238  -0.49708
  Beta  occ. eigenvalues --   -0.47436  -0.43361  -0.41856  -0.41064  -0.36253
  Beta  occ. eigenvalues --   -0.35522
  Beta virt. eigenvalues --   -0.07897   0.05843   0.07219   0.10703   0.11155
  Beta virt. eigenvalues --    0.12270   0.13471   0.14640   0.16525   0.18012
  Beta virt. eigenvalues --    0.21113   0.23893   0.27535   0.28186   0.29096

 Mulliken charges and spin densities:
               1          2
     1  O   -0.242754   0.047761
     2  O   -0.210741   0.397589
     3  C   -0.189670  -0.045188
     4  C   -0.396613   0.635935
     5  C   -0.405419   0.015580
     6  H    0.130214   0.038326
     7  H    0.131982   0.005985
     8  H    0.235340  -0.026245
     9  H    0.158870  -0.033120
    10  H    0.141582  -0.029560
    11  H    0.129714  -0.002964
    12  H    0.129466  -0.000603
    13  H    0.119273  -0.000739
    14  H    0.268754  -0.002757
 Sum of Mulliken charges =  -0.00000   1.00000

 Dipole moment (field-independent basis, Debye):
    X=             -2.4541    Y=              0.9497    Z=              0.4220  Tot=              2.6650
 Quadrupole moment (field-independent basis, Debye-Ang):
   XX=            -36.9062   YY=            -29.4106   ZZ=            -33.6025
   XY=              2.7083   XZ=              0.4823   YZ=              0.0487

  Exact polarizability:  71.374   8.321  54.877  -2.013  -0.248  44.709
 Approx polarizability:  73.892   8.908  60.385  -2.499   1.280  56.658

 ******    1 imaginary frequencies (negative Signs) ******

                      1                      2                      3
                      A                      A                      A
 Frequencies --  -1890.2528                66.9683               105.8949
 Red. masses --      1.0996                 2.8983                 3.0107
 Frc consts  --      2.3149                 0.0077                 0.0199
 IR Inten    --   1452.2924                 1.7735                 4.5326

                      4                      5                      6
                      A                      A                      A
 Frequencies --    140.8982               186.0323               275.3011
 Red. masses --      2.7726                 2.9437                 1.1083
 Frc consts  --      0.0324                 0.0600                 0.0495
 IR Inten    --      4.5832                 0.7044                 0.1309

                      7                      8                      9
                      A                      A                      A
 Frequencies --    367.7882               407.2379               574.5369
 Red. masses --      1.7344                 1.2697                 2.2384
 Frc consts  --      0.1382                 0.1241                 0.4353
 IR Inten    --     24.7728               117.9189                 0.1877

                     10                     11                     12
                      A                      A                      A
 Frequencies --    607.8876               761.7366               890.6052
 Red. masses --      1.7083                 1.1219                 1.8224
 Frc consts  --      0.3719                 0.3835                 0.8516
 IR Inten    --      0.4784                 6.7767                 3.0401

                     13                     14                     15
                      A                      A                      A
 Frequencies --    913.4153               935.4971              1072.7954
 Red. masses --      1.2977                 1.1499                 2.2622
 Frc consts  --      0.6379                 0.5929                 1.5340
 IR Inten    --      7.2973                 4.5310                38.6684

                     16                     17                     18
                      A                      A                      A
 Frequencies --   1077.9973              1117.9812              1200.5193
 Red. masses --      3.8540                 1.6310                 1.6927
 Frc consts  --      2.6387                 1.2011                 1.4373
 IR Inten    --      8.4442                 8.2010                 1.6144

                     19                     20                     21
                      A                      A                      A
 Frequencies --   1211.0569              1290.9952              1367.8153
 Red. masses --      1.3935                 1.1793                 1.4254
 Frc consts  --      1.2042                 1.1580                 1.5712
 IR Inten    --      6.7617                 2.5706                 2.5449

                     22                     23                     24
                      A                      A                      A
 Frequencies --   1406.1477              1419.3513              1455.3242
 Red. masses --      1.2578                 1.1233                 1.0523
 Frc consts  --      1.4653                 1.3333                 1.3131
 IR Inten    --      4.3599                52.0458                 3.9058

                     25                     26                     27
                      A                      A                      A
 Frequencies --   1460.0180              1479.5226              1501.4061
 Red. masses --      1.1369                 1.0777                 1.0465
 Frc consts  --      1.4279                 1.3899                 1.3900
 IR Inten    --      2.7581                 2.8644                 7.7629

                     28                     29                     30
                      A                      A                      A
 Frequencies --   1516.7637              3020.8224              3056.7143
 Red. masses --      1.0534                 1.0699                 1.0364
 Frc consts  --      1.4278                 5.7523                 5.7052
 IR Inten    --      4.4856                10.9341                16.3184

                     31                     32                     33
                      A                      A                      A
 Frequencies --   3089.6153              3101.4869              3126.0631
 Red. masses --      1.0861                 1.0588                 1.1024
 Frc consts  --      6.1085                 6.0007                 6.3474
 IR Inten    --      7.0628                11.3859                24.4102

                     34                     35                     36
                      A                      A                      A
 Frequencies --   3139.8270              3189.2965              3798.7796
 Red. masses --      1.1009                 1.1106                 1.0682
 Frc consts  --      6.3948                 6.6557                 9.0824
 IR Inten    --     23.1317                 9.9896                38.2476

 - Thermochemistry -
 -------------------
 Temperature   298.150 Kelvin.  Pressure   1.00000 Atm.
 Atom     1 has atomic number  8 and mass  15.99491

 Molecular mass:    77.06025 amu.
 Principal axes and moments of inertia in atomic units:
                           1         2         3
     Eigenvalues --   260.34029 699.81004 841.38330
           X            0.99998  -0.00345   0.00524
           Y            0.00355   0.99982  -0.01858
           Z           -0.00518   0.01860   0.99981
 This molecule is an asymmetric top.
 Rotational symmetry number  1.
 Rotational temperatures (Kelvin)      0.33270     0.12377     0.10294
 Rotational constants (GHZ):           6.93224     2.57890     2.14497
    1 imaginary frequencies ignored.
 Zero-point vibrational energy     301064.8 (Joules/Mol)
                                   71.95621 (Kcal/Mol)
 Warning -- explicit consideration of   9 degrees of freedom as
           vibrations may cause significant error
 Vibrational temperatures:     96.35   152.36   202.72   267.66   396.10
          (Kelvin)            529.17   585.92   826.63   874.61  1095.97
                             1281.38  1314.20  1345.97  1543.51  1551.00
                             1608.53  1727.28  1742.44  1857.45  1967.98
                             2023.13  2042.13  2093.89  2100.64  2128.70
                             2160.19  2182.28  4346.29  4397.93  4445.27
                             4462.35  4497.71  4517.51  4588.69  5465.60

 Zero-point correction=                           0.114670 (Hartree/Particle)
 Thermal correction to Energy=                    0.122110
 Thermal correction to Enthalpy=                  0.123055
 Thermal correction to Gibbs Free Energy=         0.082634
 Sum of electronic and zero-point Energies=           -269.869117
 Sum of electronic and thermal Energies=              -269.861676
 Sum of electronic and thermal Enthalpies=            -269.860732
 Sum of electronic and thermal Free Energies=         -269.901153

                     E (Thermal)             CV                S
                      KCal/Mol        Cal/Mol-Kelvin    Cal/Mol-Kelvin
 Total                   76.625             24.769             85.073
 Electronic               0.000              0.000              1.377
 Translational            0.889              2.981             38.941
 Rotational               0.889              2.981             26.530
 Vibrational             74.848             18.808             18.225
 Vibration     1          0.598              1.970              4.241
 Vibration     2          0.605              1.945              3.343
 Vibration     3          0.615              1.912              2.792
 Vibration     4          0.632              1.859              2.267
 Vibration     5          0.677              1.719              1.563
 Vibration     6          0.740              1.538              1.089
 Vibration     7          0.772              1.454              0.936
 Vibration     8          0.931              1.086              0.496
 Vibration     9          0.967              1.015              0.436

 Optimization completed.
    -- Stationary point found.
 Normal termination of Gaussian 16 at Fri Sep  6 04:10:35 2019.
