 Gaussian 16, Revision A.03,
 Gaussian 16:  EM64L-G16RevA.03 25-Dec-2016

 ----------------------------------------------------------------------
 #p m062x/cc-pVTZ Opt=(ModRedun,Loose,maxcycles=900) Int(Grid=SG1) scf=
 (maxcycle=900)
 ----------------------------------------------------------------------

 ------------------------------
 Gaussian input prepared by ASE
 ------------------------------
 Symbolic Z-matrix:
 Charge =  0 Multiplicity = 2

 SCF Done:  E(UM062X) =  -269.966629389     A.U. after   16 cycles
 SCF Done:  E(UM062X) =  -269.973564783     A.U. after   13 cycles
 SCF Done:  E(UM062X) =  -269.975141757     A.U. after   14 cycles
 SCF Done:  E(UM062X) =  -269.975986625     A.U. after   13 cycles
 SCF Done:  E(UM062X) =  -269.976806967     A.U. after   13 cycles
 SCF Done:  E(UM062X) =  -269.977734983     A.U. after   13 cycles
 SCF Done:  E(UM062X) =  -269.978344519     A.U. after   15 cycles
 SCF Done:  E(UM062X) =  -269.978465861     A.U. after   15 cycles
 SCF Done:  E(UM062X) =  -269.978668124     A.U. after   15 cycles
 SCF Done:  E(UM062X) =  -269.978701811     A.U. after   13 cycles
 SCF Done:  E(UM062X) =  -269.978772435     A.U. after   13 cycles
 SCF Done:  E(UM062X) =  -269.978770065     A.U. after   12 cycles
 SCF Done:  E(UM062X) =  -269.978793965     A.U. after   12 cycles
 SCF Done:  E(UM062X) =  -269.978796178     A.U. after   11 cycles
 SCF Done:  E(UM062X) =  -269.978797523     A.U. after   11 cycles
 Optimization completed.
    -- Stationary point found.

                         Standard orientation:
 ---------------------------------------------------------------------
 Center     Atomic      Atomic             Coordinates (Angstroms)
 Number     Number       Type             X           Y           Z
 ---------------------------------------------------------------------
      1          8           0       -1.851632   -0.754354    0.221155
      2          8           0       -1.715168    0.415092   -0.523713
      3          6           0        1.672420    0.413791   -0.120504
      4          6           0        0.429634    1.109462    0.359176
      5          6           0        1.555255   -1.105379   -0.063232
      6          1           0        2.518075    0.742025    0.496178
      7          1           0        1.903590    0.736400   -1.137357
      8          1           0       -0.582334    0.677159   -0.454704
      9          1           0        0.049067    0.776979    1.321530
     10          1           0        0.391379    2.188041    0.233699
     11          1           0        1.370615   -1.440997    0.957434
     12          1           0        2.466905   -1.584114   -0.415936
     13          1           0        0.722142   -1.450948   -0.674200
     14          1           0       -2.248885   -0.437696    1.041173
 ---------------------------------------------------------------------

 The electronic state is 2-A.
 Alpha  occ. eigenvalues --  -19.68537 -19.68374 -10.55461 -10.54577 -10.52596
 Alpha  occ. eigenvalues --   -1.26549  -0.99046  -0.89679  -0.78243  -0.68529
 Alpha  occ. eigenvalues --   -0.61392  -0.58486  -0.53839  -0.52106  -0.51894
 Alpha  occ. eigenvalues --   -0.47611  -0.43474  -0.41839  -0.40835  -0.39131
 Alpha  occ. eigenvalues --   -0.37388  -0.29002
 Alpha virt. eigenvalues --    0.05811   0.07339   0.10429   0.11767   0.12365
 Alpha virt. eigenvalues --    0.13612   0.15198   0.15686   0.17764   0.20325
 Alpha virt. eigenvalues --    0.22966   0.25920   0.28445   0.29187   0.31516

  Beta  occ. eigenvalues --  -19.68426 -19.67434 -10.54918 -10.54593 -10.52585
  Beta  occ. eigenvalues --   -1.24971  -0.96729  -0.88804  -0.76999  -0.67420
  Beta  occ. eigenvalues --   -0.60222  -0.55552  -0.52847  -0.51226  -0.49953
  Beta  occ. eigenvalues --   -0.46806  -0.42525  -0.41309  -0.40534  -0.37004
  Beta  occ. eigenvalues --   -0.34874
  Beta virt. eigenvalues --   -0.07011   0.06005   0.07296   0.10479   0.11841
  Beta virt. eigenvalues --    0.12304   0.13775   0.15574   0.15829   0.18010
  Beta virt. eigenvalues --    0.20814   0.23571   0.26217   0.28444   0.29191

 Mulliken charges and spin densities:
               1          2
     1  O   -0.244243   0.034237
     2  O   -0.224191   0.373439
     3  C   -0.205127  -0.043630
     4  C   -0.384303   0.667981
     5  C   -0.350845   0.014353
     6  H    0.125844   0.045481
     7  H    0.128736   0.007366
     8  H    0.241522  -0.022461
     9  H    0.140105  -0.039029
    10  H    0.146544  -0.031534
    11  H    0.111810  -0.002518
    12  H    0.116567  -0.000344
    13  H    0.132465  -0.001368
    14  H    0.265115  -0.001972
 Sum of Mulliken charges =  -0.00000   1.00000

 Dipole moment (field-independent basis, Debye):
    X=              1.2628    Y=              0.7463    Z=              1.7559  Tot=              2.2880
 Quadrupole moment (field-independent basis, Debye-Ang):
   XX=            -32.8574   YY=            -33.4892   ZZ=            -31.0387
   XY=              0.2077   XZ=             -4.7140   YZ=             -0.4362

 Normal termination of Gaussian 16 at Thu Sep  5 16:54:57 2019.
