 Gaussian 16, Revision A.03,
 Gaussian 16:  EM64L-G16RevA.03 25-Dec-2016

 ----------------------------------------------------------------------
 #p m062x/cc-pVTZ Opt=(ModRedun,Loose,maxcycles=900) Int(Grid=SG1) scf=
 (maxcycle=900)
 ----------------------------------------------------------------------

 ------------------------------
 Gaussian input prepared by ASE
 ------------------------------
 Symbolic Z-matrix:
 Charge =  0 Multiplicity = 2

 SCF Done:  E(UM062X) =  -269.966082567     A.U. after   16 cycles
 SCF Done:  E(UM062X) =  -269.972956266     A.U. after   14 cycles
 SCF Done:  E(UM062X) =  -269.974494460     A.U. after   14 cycles
 SCF Done:  E(UM062X) =  -269.975395465     A.U. after   16 cycles
 SCF Done:  E(UM062X) =  -269.976473725     A.U. after   14 cycles
 SCF Done:  E(UM062X) =  -269.978254601     A.U. after   15 cycles
 SCF Done:  E(UM062X) =  -269.978910601     A.U. after   14 cycles
 SCF Done:  E(UM062X) =  -269.978358197     A.U. after   15 cycles
 SCF Done:  E(UM062X) =  -269.979366889     A.U. after   14 cycles
 SCF Done:  E(UM062X) =  -269.979502510     A.U. after   14 cycles
 SCF Done:  E(UM062X) =  -269.979753020     A.U. after   13 cycles
 SCF Done:  E(UM062X) =  -269.979737990     A.U. after   12 cycles
 SCF Done:  E(UM062X) =  -269.952053003     A.U. after   14 cycles
 SCF Done:  E(UM062X) =  -269.978539397     A.U. after   14 cycles
 SCF Done:  E(UM062X) =  -269.979759126     A.U. after   11 cycles
 SCF Done:  E(UM062X) =  -269.979779957     A.U. after   12 cycles
 SCF Done:  E(UM062X) =  -269.979311075     A.U. after   14 cycles
 SCF Done:  E(UM062X) =  -269.979780109     A.U. after   13 cycles
 SCF Done:  E(UM062X) =  -269.979790273     A.U. after   11 cycles
 SCF Done:  E(UM062X) =  -269.979789953     A.U. after   11 cycles
 Optimization completed.
    -- Stationary point found.

                         Standard orientation:
 ---------------------------------------------------------------------
 Center     Atomic      Atomic             Coordinates (Angstroms)
 Number     Number       Type             X           Y           Z
 ---------------------------------------------------------------------
      1          8           0        1.805776    0.533994    0.542784
      2          8           0        1.675882   -0.093009   -0.693199
      3          6           0       -1.220359   -0.156348    0.618539
      4          6           0       -0.360935   -1.210943   -0.012452
      5          6           0       -1.872601    0.763287   -0.407059
      6          1           0       -0.622447    0.421807    1.324220
      7          1           0       -1.995205   -0.648480    1.218171
      8          1           0        0.593526   -0.523026   -0.711836
      9          1           0        0.261820   -1.796582    0.653264
     10          1           0       -0.835950   -1.798476   -0.796525
     11          1           0       -1.113356    1.278742   -0.997287
     12          1           0       -2.498037    1.514483    0.071344
     13          1           0       -2.495734    0.196838   -1.099039
     14          1           0        1.575496    1.450846    0.346838
 ---------------------------------------------------------------------

 The electronic state is 2-A.
 Alpha  occ. eigenvalues --  -19.68707 -19.68260 -10.55227 -10.54541 -10.53401
 Alpha  occ. eigenvalues --   -1.26636  -0.99036  -0.89948  -0.78573  -0.68465
 Alpha  occ. eigenvalues --   -0.62235  -0.58728  -0.53058  -0.52920  -0.51399
 Alpha  occ. eigenvalues --   -0.48220  -0.43416  -0.42128  -0.41241  -0.39714
 Alpha  occ. eigenvalues --   -0.37444  -0.28776
 Alpha virt. eigenvalues --    0.05023   0.08133   0.10497   0.11143   0.12115
 Alpha virt. eigenvalues --    0.13741   0.15616   0.16293   0.17312   0.19820
 Alpha virt. eigenvalues --    0.23259   0.26288   0.27831   0.29005   0.29991

  Beta  occ. eigenvalues --  -19.68587 -19.67334 -10.54690 -10.54560 -10.53390
  Beta  occ. eigenvalues --   -1.25071  -0.96727  -0.89128  -0.77347  -0.67341
  Beta  occ. eigenvalues --   -0.60983  -0.55902  -0.52120  -0.52076  -0.49386
  Beta  occ. eigenvalues --   -0.47624  -0.42553  -0.41559  -0.40823  -0.36274
  Beta  occ. eigenvalues --   -0.36030
  Beta virt. eigenvalues --   -0.06826   0.05088   0.08061   0.10429   0.11123
  Beta virt. eigenvalues --    0.12415   0.13998   0.15727   0.16391   0.17528
  Beta virt. eigenvalues --    0.20027   0.24027   0.26480   0.27937   0.28992

 Mulliken charges and spin densities:
               1          2
     1  O   -0.247406   0.034755
     2  O   -0.225962   0.368209
     3  C   -0.257597  -0.044672
     4  C   -0.366087   0.669440
     5  C   -0.329797   0.004325
     6  H    0.146622   0.007501
     7  H    0.136135   0.046507
     8  H    0.234300  -0.019394
     9  H    0.165540  -0.037747
    10  H    0.137308  -0.029352
    11  H    0.106511   0.001875
    12  H    0.116345   0.000651
    13  H    0.112985   0.000090
    14  H    0.271103  -0.002188
 Sum of Mulliken charges =  -0.00000   1.00000

 Dipole moment (field-independent basis, Debye):
    X=             -2.1934    Y=              0.8978    Z=              0.2869  Tot=              2.3873
 Quadrupole moment (field-independent basis, Debye-Ang):
   XX=            -37.0486   YY=            -28.8729   ZZ=            -33.7815
   XY=              2.4563   XZ=              0.4553   YZ=              0.6682

 Normal termination of Gaussian 16 at Thu Sep  5 18:45:09 2019.
