 Gaussian 16, Revision A.03,
 Gaussian 16:  EM64L-G16RevA.03 25-Dec-2016

 ----------------------------------------------------------------------
 #p m062x/cc-pVTZ Opt=(ModRedun,Loose,maxcycles=900) Int(Grid=SG1) scf=
 (maxcycle=900)
 ----------------------------------------------------------------------

 ------------------------------
 Gaussian input prepared by ASE
 ------------------------------
 Symbolic Z-matrix:
 Charge =  0 Multiplicity = 2

 SCF Done:  E(UM062X) =  -269.964661979     A.U. after   16 cycles
 SCF Done:  E(UM062X) =  -269.971854612     A.U. after   14 cycles
 SCF Done:  E(UM062X) =  -269.973522582     A.U. after   15 cycles
 SCF Done:  E(UM062X) =  -269.974127624     A.U. after   14 cycles
 SCF Done:  E(UM062X) =  -269.974078034     A.U. after   13 cycles
 SCF Done:  E(UM062X) =  -269.974431157     A.U. after   14 cycles
 SCF Done:  E(UM062X) =  -269.975238014     A.U. after   15 cycles
 SCF Done:  E(UM062X) =  -269.975856234     A.U. after   14 cycles
 SCF Done:  E(UM062X) =  -269.974978489     A.U. after   15 cycles
 SCF Done:  E(UM062X) =  -269.977445948     A.U. after   14 cycles
 SCF Done:  E(UM062X) =  -269.977697653     A.U. after   13 cycles
 SCF Done:  E(UM062X) =  -269.978393014     A.U. after   14 cycles
 SCF Done:  E(UM062X) =  -269.978530737     A.U. after   13 cycles
 SCF Done:  E(UM062X) =  -269.978672454     A.U. after   14 cycles
 SCF Done:  E(UM062X) =  -269.978715853     A.U. after   14 cycles
 SCF Done:  E(UM062X) =  -269.978760761     A.U. after   14 cycles
 SCF Done:  E(UM062X) =  -269.978787340     A.U. after   14 cycles
 SCF Done:  E(UM062X) =  -269.978799245     A.U. after   12 cycles
 SCF Done:  E(UM062X) =  -269.978797937     A.U. after   11 cycles
 Optimization completed.
    -- Stationary point found.

                         Standard orientation:
 ---------------------------------------------------------------------
 Center     Atomic      Atomic             Coordinates (Angstroms)
 Number     Number       Type             X           Y           Z
 ---------------------------------------------------------------------
      1          8           0        1.848249   -0.754246   -0.221888
      2          8           0        1.714650    0.414658    0.524160
      3          6           0       -1.671334    0.413272    0.120605
      4          6           0       -0.429508    1.110464   -0.359164
      5          6           0       -1.552585   -1.105745    0.063320
      6          1           0       -2.517523    0.740769   -0.495717
      7          1           0       -1.902709    0.735519    1.137549
      8          1           0        0.582652    0.680458    0.455693
      9          1           0       -0.047864    0.777582   -1.320950
     10          1           0       -0.393437    2.189258   -0.234884
     11          1           0       -1.370114   -1.441382   -0.957675
     12          1           0       -2.462910   -1.585309    0.418279
     13          1           0       -0.717608   -1.450270    0.672275
     14          1           0        2.246878   -0.437866   -1.041300
 ---------------------------------------------------------------------

 The electronic state is 2-A.
 Alpha  occ. eigenvalues --  -19.68541 -19.68374 -10.55458 -10.54573 -10.52588
 Alpha  occ. eigenvalues --   -1.26556  -0.99048  -0.89677  -0.78241  -0.68526
 Alpha  occ. eigenvalues --   -0.61399  -0.58491  -0.53835  -0.52107  -0.51892
 Alpha  occ. eigenvalues --   -0.47610  -0.43473  -0.41835  -0.40831  -0.39129
 Alpha  occ. eigenvalues --   -0.37387  -0.29002
 Alpha virt. eigenvalues --    0.05813   0.07340   0.10429   0.11771   0.12367
 Alpha virt. eigenvalues --    0.13616   0.15202   0.15691   0.17770   0.20340
 Alpha virt. eigenvalues --    0.22973   0.25920   0.28449   0.29191   0.31516

  Beta  occ. eigenvalues --  -19.68429 -19.67433 -10.54916 -10.54589 -10.52577
  Beta  occ. eigenvalues --   -1.24979  -0.96731  -0.88802  -0.76997  -0.67417
  Beta  occ. eigenvalues --   -0.60230  -0.55556  -0.52844  -0.51223  -0.49953
  Beta  occ. eigenvalues --   -0.46804  -0.42521  -0.41305  -0.40528  -0.37004
  Beta  occ. eigenvalues --   -0.34874
  Beta virt. eigenvalues --   -0.07010   0.06007   0.07297   0.10479   0.11844
  Beta virt. eigenvalues --    0.12309   0.13778   0.15575   0.15837   0.18014
  Beta virt. eigenvalues --    0.20825   0.23580   0.26217   0.28449   0.29195

 Mulliken charges and spin densities:
               1          2
     1  O   -0.244143   0.034219
     2  O   -0.224237   0.373443
     3  C   -0.204990  -0.043612
     4  C   -0.384361   0.667921
     5  C   -0.350971   0.014194
     6  H    0.125864   0.045473
     7  H    0.128707   0.007409
     8  H    0.241579  -0.022459
     9  H    0.140056  -0.038982
    10  H    0.146459  -0.031495
    11  H    0.111873  -0.002473
    12  H    0.116501  -0.000338
    13  H    0.132527  -0.001327
    14  H    0.265136  -0.001973
 Sum of Mulliken charges =  -0.00000   1.00000

 Dipole moment (field-independent basis, Debye):
    X=             -1.2587    Y=              0.7478    Z=             -1.7549  Tot=              2.2854
 Quadrupole moment (field-independent basis, Debye-Ang):
   XX=            -32.8521   YY=            -33.4855   ZZ=            -31.0401
   XY=             -0.2118   XZ=             -4.7109   YZ=              0.4373

 Normal termination of Gaussian 16 at Thu Sep  5 18:09:40 2019.
