 Gaussian 16, Revision A.03,
 Gaussian 16:  EM64L-G16RevA.03 25-Dec-2016

 ----------------------------------------------------------------------
 #p m062x/cc-pVTZ opt=(ts,calcfc,noeigentest,maxcycles=900) freq scf=(m
 axcycle=900) IOP(7/33=1,2/16=3)
 ----------------------------------------------------------------------

 ------------------------------
 Gaussian input prepared by ASE
 ------------------------------
 Symbolic Z-matrix:
 Charge =  0 Multiplicity = 2

 SCF Done:  E(UM062X) =  -269.980593627     A.U. after   18 cycles
 SCF Done:  E(UM062X) =  -269.984166504     A.U. after   18 cycles
 SCF Done:  E(UM062X) =  -269.984920836     A.U. after   15 cycles
 SCF Done:  E(UM062X) =  -269.984979263     A.U. after   12 cycles
 SCF Done:  E(UM062X) =  -269.984994205     A.U. after   11 cycles
 SCF Done:  E(UM062X) =  -269.985080223     A.U. after   13 cycles
 SCF Done:  E(UM062X) =  -269.985135663     A.U. after   12 cycles
 SCF Done:  E(UM062X) =  -269.985152073     A.U. after   12 cycles
 SCF Done:  E(UM062X) =  -269.985155122     A.U. after   11 cycles
 SCF Done:  E(UM062X) =  -269.985155796     A.U. after   11 cycles
 SCF Done:  E(UM062X) =  -269.985156024     A.U. after   10 cycles
 SCF Done:  E(UM062X) =  -269.985156078     A.U. after   10 cycles
 SCF Done:  E(UM062X) =  -269.985156156     A.U. after   10 cycles
 SCF Done:  E(UM062X) =  -269.985156387     A.U. after   10 cycles
 SCF Done:  E(UM062X) =  -269.985156404     A.U. after    8 cycles
 Optimization completed.
    -- Stationary point found.
 Normal termination of Gaussian 16 at Fri Sep  6 00:33:47 2019.

 ----------------------------------------------------------------------
 #P Geom=AllCheck Guess=TCheck SCRF=Check Test GenChk UM062X/CC-pVTZ Fr
 eq
 ----------------------------------------------------------------------

 Structure from the checkpoint file:  "/scratch/harms.n/gauss_scrdir/Gau-43885.chk"
 ------------------------------
 Gaussian input prepared by ASE
 ------------------------------
 Charge =  0 Multiplicity = 2

                         Standard orientation:
 ---------------------------------------------------------------------
 Center     Atomic      Atomic             Coordinates (Angstroms)
 Number     Number       Type             X           Y           Z
 ---------------------------------------------------------------------
      1          8           0       -1.713877   -0.668163    0.434949
      2          8           0       -1.612798    0.232951   -0.617437
      3          6           0        1.298090    0.146190    0.577959
      4          6           0        0.586765    1.305599   -0.055425
      5          6           0        1.525880   -1.002004   -0.397622
      6          1           0        0.726472   -0.206427    1.438833
      7          1           0        2.258898    0.497438    0.974104
      8          1           0       -0.603255    0.806160   -0.406413
      9          1           0        0.324335    2.133163    0.598480
     10          1           0        0.977616    1.630262   -1.017745
     11          1           0        0.572101   -1.379757   -0.764776
     12          1           0        2.059763   -1.823659    0.077296
     13          1           0        2.111766   -0.668812   -1.255431
     14          1           0       -2.278705   -0.205385    1.066085
 ---------------------------------------------------------------------

 SCF Done:  E(UM062X) =  -269.985156404     A.U. after    1 cycles

 The electronic state is 2-A.
 Alpha  occ. eigenvalues --  -19.69099 -19.68648 -10.55209 -10.54054 -10.52094
 Alpha  occ. eigenvalues --   -1.27041  -0.99088  -0.89459  -0.78029  -0.67975
 Alpha  occ. eigenvalues --   -0.62095  -0.59185  -0.53158  -0.52302  -0.51304
 Alpha  occ. eigenvalues --   -0.47655  -0.42841  -0.41459  -0.40600  -0.39872
 Alpha  occ. eigenvalues --   -0.37656  -0.29470
 Alpha virt. eigenvalues --    0.05613   0.08355   0.10540   0.11301   0.12885
 Alpha virt. eigenvalues --    0.14912   0.15064   0.16624   0.18021   0.20263
 Alpha virt. eigenvalues --    0.25225   0.27127   0.28826   0.29322   0.29527

  Beta  occ. eigenvalues --  -19.68932 -19.67683 -10.54702 -10.54075 -10.52088
  Beta  occ. eigenvalues --   -1.25350  -0.96605  -0.88614  -0.76845  -0.66961
  Beta  occ. eigenvalues --   -0.60801  -0.56102  -0.52408  -0.50902  -0.49321
  Beta  occ. eigenvalues --   -0.47085  -0.41779  -0.40975  -0.40286  -0.36559
  Beta  occ. eigenvalues --   -0.35656
  Beta virt. eigenvalues --   -0.07783   0.05675   0.08256   0.10550   0.11295
  Beta virt. eigenvalues --    0.12894   0.15144   0.15607   0.16704   0.18050
  Beta virt. eigenvalues --    0.20341   0.25661   0.27442   0.29064   0.29401

 Mulliken charges and spin densities:
               1          2
     1  O   -0.243039   0.051079
     2  O   -0.214984   0.392649
     3  C   -0.244440  -0.037144
     4  C   -0.388328   0.615513
     5  C   -0.345880   0.001795
     6  H    0.140731   0.008172
     7  H    0.137625   0.044499
     8  H    0.236326  -0.020739
     9  H    0.142913  -0.028508
    10  H    0.141825  -0.027374
    11  H    0.144623   0.002377
    12  H    0.113021  -0.000144
    13  H    0.107382   0.000293
    14  H    0.272226  -0.002468
 Sum of Mulliken charges =  -0.00000   1.00000

 Dipole moment (field-independent basis, Debye):
    X=              0.7149    Y=              1.1973    Z=              1.6831  Tot=              2.1857
 Quadrupole moment (field-independent basis, Debye-Ang):
   XX=            -31.3247   YY=            -33.1709   ZZ=            -31.4841
   XY=             -0.6628   XZ=             -4.3420   YZ=              0.0649

  Exact polarizability:  69.191   7.581  53.942  -0.075  -1.015  47.314
 Approx polarizability:  71.531   9.168  60.898   1.098  -2.881  58.107

 ******    1 imaginary frequencies (negative Signs) ******

                      1                      2                      3
                      A                      A                      A
 Frequencies --  -1851.9098                68.1720               109.2957
 Red. masses --      1.1000                 4.2476                 3.5593
 Frc consts  --      2.2228                 0.0116                 0.0251
 IR Inten    --   1276.3963                 6.4227                 4.0080

                      4                      5                      6
                      A                      A                      A
 Frequencies --    144.7506               216.5090               284.7705
 Red. masses --      1.8374                 1.6965                 1.5229
 Frc consts  --      0.0227                 0.0469                 0.0728
 IR Inten    --      0.1146                 3.5541                 5.4450

                      7                      8                      9
                      A                      A                      A
 Frequencies --    364.6703               414.8606               516.1537
 Red. masses --      1.4146                 1.8443                 1.2551
 Frc consts  --      0.1108                 0.1870                 0.1970
 IR Inten    --     61.3236                31.4896                14.3327

                     10                     11                     12
                      A                      A                      A
 Frequencies --    572.4655               756.6545               893.7878
 Red. masses --      3.0635                 1.1409                 2.2291
 Frc consts  --      0.5915                 0.3848                 1.0492
 IR Inten    --      5.8772                11.9543                 3.8787

                     13                     14                     15
                      A                      A                      A
 Frequencies --    928.3332               958.0291              1078.0987
 Red. masses --      1.1621                 1.1704                 9.4123
 Frc consts  --      0.5901                 0.6329                 6.4456
 IR Inten    --      2.5607                 7.8283                25.7121

                     16                     17                     18
                      A                      A                      A
 Frequencies --   1088.0046              1123.5566              1187.3207
 Red. masses --      1.9741                 1.2821                 1.5669
 Frc consts  --      1.3768                 0.9536                 1.3015
 IR Inten    --      4.9296                14.6904                 1.1878

                     19                     20                     21
                      A                      A                      A
 Frequencies --   1198.4769              1287.3614              1368.6168
 Red. masses --      1.6332                 1.1811                 1.4328
 Frc consts  --      1.3821                 1.1533                 1.5812
 IR Inten    --      2.3412                 3.4023                 2.3233

                     22                     23                     24
                      A                      A                      A
 Frequencies --   1409.8805              1417.2888              1452.2270
 Red. masses --      1.1167                 1.2706                 1.0419
 Frc consts  --      1.3079                 1.5037                 1.2946
 IR Inten    --     47.8059                 5.0041                 2.3161

                     25                     26                     27
                      A                      A                      A
 Frequencies --   1461.9753              1470.7548              1504.4656
 Red. masses --      1.1466                 1.0819                 1.0404
 Frc consts  --      1.4439                 1.3788                 1.3874
 IR Inten    --      8.7754                 3.3549                 8.3001

                     28                     29                     30
                      A                      A                      A
 Frequencies --   1508.3770              3015.7799              3063.9797
 Red. masses --      1.0545                 1.0704                 1.0373
 Frc consts  --      1.4136                 5.7359                 5.7377
 IR Inten    --      4.1751                13.4373                18.9024

                     31                     32                     33
                      A                      A                      A
 Frequencies --   3083.6479              3100.9441              3134.0854
 Red. masses --      1.0853                 1.0553                 1.1012
 Frc consts  --      6.0803                 5.9790                 6.3727
 IR Inten    --      8.7214                13.0541                22.0939

                     34                     35                     36
                      A                      A                      A
 Frequencies --   3146.5151              3184.3601              3812.0433
 Red. masses --      1.1030                 1.1114                 1.0684
 Frc consts  --      6.4339                 6.6400                 9.1473
 IR Inten    --     14.1817                13.6209                62.9495

 - Thermochemistry -
 -------------------
 Temperature   298.150 Kelvin.  Pressure   1.00000 Atm.
 Atom     1 has atomic number  8 and mass  15.99491

 Molecular mass:    77.06025 amu.
 Principal axes and moments of inertia in atomic units:
                           1         2         3
     Eigenvalues --   277.21269 660.19799 773.71588
           X            0.99953  -0.02372  -0.01927
           Y            0.02435   0.99915   0.03329
           Z            0.01846  -0.03374   0.99926
 This molecule is an asymmetric top.
 Rotational symmetry number  1.
 Rotational temperatures (Kelvin)      0.31245     0.13119     0.11195
 Rotational constants (GHZ):           6.51031     2.73364     2.33256
    1 imaginary frequencies ignored.
 Zero-point vibrational energy     301017.6 (Joules/Mol)
                                   71.94493 (Kcal/Mol)
 Warning -- explicit consideration of   9 degrees of freedom as
           vibrations may cause significant error
 Vibrational temperatures:     98.08   157.25   208.26   311.51   409.72
          (Kelvin)            524.68   596.89   742.63   823.65  1088.66
                             1285.96  1335.66  1378.39  1551.14  1565.40
                             1616.55  1708.29  1724.34  1852.23  1969.13
                             2028.50  2039.16  2089.43  2103.46  2116.09
                             2164.59  2170.22  4339.03  4408.38  4436.68
                             4461.57  4509.25  4527.13  4581.58  5484.68

 Zero-point correction=                           0.114652 (Hartree/Particle)
 Thermal correction to Energy=                    0.122065
 Thermal correction to Enthalpy=                  0.123009
 Thermal correction to Gibbs Free Energy=         0.082781
 Sum of electronic and zero-point Energies=           -269.870505
 Sum of electronic and thermal Energies=              -269.863091
 Sum of electronic and thermal Enthalpies=            -269.862147
 Sum of electronic and thermal Free Energies=         -269.902375

                     E (Thermal)             CV                S
                      KCal/Mol        Cal/Mol-Kelvin    Cal/Mol-Kelvin
 Total                   76.597             24.856             84.667
 Electronic               0.000              0.000              1.377
 Translational            0.889              2.981             38.941
 Rotational               0.889              2.981             26.451
 Vibrational             74.820             18.894             17.897
 Vibration     1          0.598              1.969              4.205
 Vibration     2          0.606              1.942              3.281
 Vibration     3          0.616              1.908              2.740
 Vibration     4          0.645              1.816              1.988
 Vibration     5          0.683              1.702              1.505
 Vibration     6          0.738              1.545              1.102
 Vibration     7          0.778              1.438              0.910
 Vibration     8          0.871              1.214              0.619
 Vibration     9          0.929              1.091              0.500

 Optimization completed.
    -- Stationary point found.
 Normal termination of Gaussian 16 at Fri Sep  6 01:53:09 2019.
