 Gaussian 16, Revision A.03,
 Gaussian 16:  EM64L-G16RevA.03 25-Dec-2016

 ----------------------------------------------------------------------
 #p m062x/cc-pVTZ opt=(ts,calcfc,noeigentest,maxcycles=900) freq scf=(m
 axcycle=900) IOP(7/33=1,2/16=3)
 ----------------------------------------------------------------------

 ------------------------------
 Gaussian input prepared by ASE
 ------------------------------
 Symbolic Z-matrix:
 Charge =  0 Multiplicity = 2

 SCF Done:  E(UM062X) =  -269.979590814     A.U. after   17 cycles
 SCF Done:  E(UM062X) =  -269.983372404     A.U. after   16 cycles
 SCF Done:  E(UM062X) =  -269.984309808     A.U. after   16 cycles
 SCF Done:  E(UM062X) =  -269.984312250     A.U. after   15 cycles
 SCF Done:  E(UM062X) =  -269.984529398     A.U. after   15 cycles
 SCF Done:  E(UM062X) =  -269.984566505     A.U. after   13 cycles
 SCF Done:  E(UM062X) =  -269.984379761     A.U. after   13 cycles
 SCF Done:  E(UM062X) =  -269.984202802     A.U. after   16 cycles
 SCF Done:  E(UM062X) =  -269.984680766     A.U. after   14 cycles
 SCF Done:  E(UM062X) =  -269.984690380     A.U. after   15 cycles
 SCF Done:  E(UM062X) =  -269.984863589     A.U. after   13 cycles
 SCF Done:  E(UM062X) =  -269.984930423     A.U. after   13 cycles
 SCF Done:  E(UM062X) =  -269.984936746     A.U. after   12 cycles
 SCF Done:  E(UM062X) =  -269.984937019     A.U. after   10 cycles
 SCF Done:  E(UM062X) =  -269.984830078     A.U. after   13 cycles
 SCF Done:  E(UM062X) =  -269.984922773     A.U. after   13 cycles
 SCF Done:  E(UM062X) =  -269.984921397     A.U. after   13 cycles
 SCF Done:  E(UM062X) =  -269.984936817     A.U. after   12 cycles
 SCF Done:  E(UM062X) =  -269.984937033     A.U. after   10 cycles
 Optimization completed.
    -- Stationary point found.
 Normal termination of Gaussian 16 at Fri Sep  6 19:48:31 2019.

 ----------------------------------------------------------------------
 #P Geom=AllCheck Guess=TCheck SCRF=Check Test GenChk UM062X/CC-pVTZ Fr
 eq
 ----------------------------------------------------------------------

 Structure from the checkpoint file:  "/scratch/harms.n/gauss_scrdir/Gau-32552.chk"
 ------------------------------
 Gaussian input prepared by ASE
 ------------------------------
 Charge =  0 Multiplicity = 2

                         Standard orientation:
 ---------------------------------------------------------------------
 Center     Atomic      Atomic             Coordinates (Angstroms)
 Number     Number       Type             X           Y           Z
 ---------------------------------------------------------------------
      1          8           0       -1.780185   -0.554410    0.525773
      2          8           0       -1.626763    0.245787   -0.598422
      3          6           0        1.269432    0.140127    0.583141
      4          6           0        0.577719    1.311174   -0.049026
      5          6           0        1.539583   -0.981581   -0.413439
      6          1           0        0.664636   -0.227202    1.415193
      7          1           0        2.215187    0.475368    1.024879
      8          1           0       -0.623808    0.827180   -0.398165
      9          1           0        0.306747    2.129651    0.611643
     10          1           0        0.981397    1.642237   -1.003645
     11          1           0        0.613789   -1.301279   -0.895642
     12          1           0        1.994787   -1.845555    0.068262
     13          1           0        2.210663   -0.643066   -1.203596
     14          1           0       -1.428220   -1.406667    0.238200
 ---------------------------------------------------------------------

 SCF Done:  E(UM062X) =  -269.984937033     A.U. after    1 cycles

 The electronic state is 2-A.
 Alpha  occ. eigenvalues --  -19.69112 -19.68666 -10.55324 -10.54646 -10.53517
 Alpha  occ. eigenvalues --   -1.27073  -0.99086  -0.90138  -0.78747  -0.68659
 Alpha  occ. eigenvalues --   -0.62317  -0.58913  -0.53516  -0.53290  -0.51458
 Alpha  occ. eigenvalues --   -0.48432  -0.43725  -0.42250  -0.41404  -0.40078
 Alpha  occ. eigenvalues --   -0.37668  -0.29504
 Alpha virt. eigenvalues --    0.05126   0.08222   0.10262   0.11169   0.12280
 Alpha virt. eigenvalues --    0.14141   0.15093   0.16260   0.18268   0.20101
 Alpha virt. eigenvalues --    0.24871   0.26825   0.28101   0.28782   0.29216

  Beta  occ. eigenvalues --  -19.68936 -19.67707 -10.54814 -10.54666 -10.53511
  Beta  occ. eigenvalues --   -1.25374  -0.96610  -0.89363  -0.77570  -0.67605
  Beta  occ. eigenvalues --   -0.60926  -0.55885  -0.52643  -0.52491  -0.49141
  Beta  occ. eigenvalues --   -0.47881  -0.42760  -0.41751  -0.41031  -0.36621
  Beta  occ. eigenvalues --   -0.35645
  Beta virt. eigenvalues --   -0.07798   0.05182   0.08104   0.10304   0.11141
  Beta virt. eigenvalues --    0.12363   0.14421   0.15398   0.16324   0.18442
  Beta virt. eigenvalues --    0.20127   0.25351   0.27281   0.28267   0.28838

 Mulliken charges and spin densities:
               1          2
     1  O   -0.238565   0.053965
     2  O   -0.212174   0.390593
     3  C   -0.277182  -0.039680
     4  C   -0.363311   0.618593
     5  C   -0.360554   0.001716
     6  H    0.159135   0.009691
     7  H    0.142817   0.043293
     8  H    0.235842  -0.021446
     9  H    0.147257  -0.028443
    10  H    0.138629  -0.027783
    11  H    0.112267   0.002526
    12  H    0.123683  -0.000083
    13  H    0.121957   0.000250
    14  H    0.270198  -0.003193
 Sum of Mulliken charges =  -0.00000   1.00000

 Dipole moment (field-independent basis, Debye):
    X=              2.3729    Y=             -0.8102    Z=              0.1744  Tot=              2.5134
 Quadrupole moment (field-independent basis, Debye-Ang):
   XX=            -37.0918   YY=            -28.9855   ZZ=            -33.7675
   XY=              2.1869   XZ=             -0.0634   YZ=             -0.1409

  Exact polarizability:  67.486   8.009  55.950   1.167  -1.123  46.004
 Approx polarizability:  71.482   9.068  62.349   1.672  -3.263  57.043

 ******    1 imaginary frequencies (negative Signs) ******

                      1                      2                      3
                      A                      A                      A
 Frequencies --  -1861.9677                74.9980               106.4472
 Red. masses --      1.1003                 4.0687                 3.5647
 Frc consts  --      2.2475                 0.0135                 0.0238
 IR Inten    --   1240.9294                 5.2966                 3.7983

                      4                      5                      6
                      A                      A                      A
 Frequencies --    154.7753               220.0970               285.1999
 Red. masses --      1.7924                 1.7661                 1.6298
 Frc consts  --      0.0253                 0.0504                 0.0781
 IR Inten    --      0.2254                 0.5074                 0.4137

                      7                      8                      9
                      A                      A                      A
 Frequencies --    367.8791               404.1474               511.5431
 Red. masses --      1.2792                 1.7213                 1.4207
 Frc consts  --      0.1020                 0.1656                 0.2190
 IR Inten    --    100.7867                37.4064                18.0779

                     10                     11                     12
                      A                      A                      A
 Frequencies --    583.1276               757.4156               894.4548
 Red. masses --      2.7066                 1.1382                 2.1992
 Frc consts  --      0.5422                 0.3847                 1.0366
 IR Inten    --      1.2188                 7.3944                 3.2955

                     13                     14                     15
                      A                      A                      A
 Frequencies --    928.6480               947.9796              1078.6907
 Red. masses --      1.1761                 1.1686                 7.0984
 Frc consts  --      0.5976                 0.6187                 4.8664
 IR Inten    --      4.5063                 5.6123                20.6502

                     16                     17                     18
                      A                      A                      A
 Frequencies --   1085.2970              1116.5403              1188.7062
 Red. masses --      1.9609                 1.3806                 1.5752
 Frc consts  --      1.3608                 1.0141                 1.3114
 IR Inten    --     13.1990                22.2731                 0.8862

                     19                     20                     21
                      A                      A                      A
 Frequencies --   1198.9467              1287.6570              1369.9109
 Red. masses --      1.5762                 1.1833                 1.4215
 Frc consts  --      1.3349                 1.1560                 1.5718
 IR Inten    --      4.7232                 2.6626                 1.9157

                     22                     23                     24
                      A                      A                      A
 Frequencies --   1409.0386              1420.0721              1454.3813
 Red. masses --      1.1864                 1.1981                 1.0730
 Frc consts  --      1.3878                 1.4235                 1.3372
 IR Inten    --     33.5785                18.7505                 1.7120

                     25                     26                     27
                      A                      A                      A
 Frequencies --   1468.0096              1473.8261              1500.2723
 Red. masses --      1.1207                 1.0795                 1.0383
 Frc consts  --      1.4230                 1.3816                 1.3769
 IR Inten    --      8.4975                 4.1878                 7.1009

                     28                     29                     30
                      A                      A                      A
 Frequencies --   1512.3108              3022.8816              3058.8361
 Red. masses --      1.0547                 1.0697                 1.0363
 Frc consts  --      1.4212                 5.7593                 5.7128
 IR Inten    --      5.9649                10.8478                18.8212

                     31                     32                     33
                      A                      A                      A
 Frequencies --   3079.5610              3104.7319              3122.8936
 Red. masses --      1.0886                 1.0552                 1.1010
 Frc consts  --      6.0827                 5.9929                 6.3262
 IR Inten    --      2.8224                11.1737                23.1425

                     34                     35                     36
                      A                      A                      A
 Frequencies --   3140.8412              3191.7147              3799.1293
 Red. masses --      1.1021                 1.1115                 1.0683
 Frc consts  --      6.4056                 6.6710                 9.0850
 IR Inten    --     20.8895                10.1552                40.7859

 - Thermochemistry -
 -------------------
 Temperature   298.150 Kelvin.  Pressure   1.00000 Atm.
 Atom     1 has atomic number  8 and mass  15.99491

 Molecular mass:    77.06025 amu.
 Principal axes and moments of inertia in atomic units:
                           1         2         3
     Eigenvalues --   276.28612 663.02176 773.36163
           X            0.99992  -0.01141  -0.00574
           Y            0.01159   0.99944   0.03130
           Z            0.00538  -0.03137   0.99949
 This molecule is an asymmetric top.
 Rotational symmetry number  1.
 Rotational temperatures (Kelvin)      0.31349     0.13064     0.11200
 Rotational constants (GHZ):           6.53215     2.72199     2.33363
    1 imaginary frequencies ignored.
 Zero-point vibrational energy     300986.2 (Joules/Mol)
                                   71.93743 (Kcal/Mol)
 Warning -- explicit consideration of   9 degrees of freedom as
           vibrations may cause significant error
 Vibrational temperatures:    107.91   153.15   222.69   316.67   410.34
          (Kelvin)            529.30   581.48   736.00   838.99  1089.75
                             1286.92  1336.12  1363.93  1552.00  1561.50
                             1606.45  1710.28  1725.02  1852.65  1971.00
                             2027.29  2043.17  2092.53  2112.14  2120.51
                             2158.56  2175.88  4349.25  4400.98  4430.80
                             4467.02  4493.15  4518.97  4592.17  5466.10

 Zero-point correction=                           0.114640 (Hartree/Particle)
 Thermal correction to Energy=                    0.122027
 Thermal correction to Enthalpy=                  0.122971
 Thermal correction to Gibbs Free Energy=         0.082874
 Sum of electronic and zero-point Energies=           -269.870297
 Sum of electronic and thermal Energies=              -269.862910
 Sum of electronic and thermal Enthalpies=            -269.861966
 Sum of electronic and thermal Free Energies=         -269.902063

                     E (Thermal)             CV                S
                      KCal/Mol        Cal/Mol-Kelvin    Cal/Mol-Kelvin
 Total                   76.573             24.852             84.391
 Electronic               0.000              0.000              1.377
 Translational            0.889              2.981             38.941
 Rotational               0.889              2.981             26.452
 Vibrational             74.796             18.891             17.621
 Vibration     1          0.599              1.966              4.018
 Vibration     2          0.605              1.944              3.333
 Vibration     3          0.620              1.897              2.613
 Vibration     4          0.647              1.810              1.958
 Vibration     5          0.683              1.701              1.502
 Vibration     6          0.740              1.538              1.089
 Vibration     7          0.769              1.461              0.948
 Vibration     8          0.867              1.224              0.630
 Vibration     9          0.940              1.068              0.480

 Optimization completed.
    -- Stationary point found.
 Normal termination of Gaussian 16 at Fri Sep  6 21:32:18 2019.
