 Gaussian 16, Revision A.03,
 Gaussian 16:  EM64L-G16RevA.03 25-Dec-2016

 ----------------------------------------------------------------------
 #p m062x/cc-pVTZ Opt=(ModRedun,Loose,maxcycles=900) Int(Grid=SG1) scf=
 (maxcycle=900)
 ----------------------------------------------------------------------

 ------------------------------
 Gaussian input prepared by ASE
 ------------------------------
 Symbolic Z-matrix:
 Charge =  0 Multiplicity = 2

 SCF Done:  E(UM062X) =  -269.968641351     A.U. after   16 cycles
 SCF Done:  E(UM062X) =  -269.975495970     A.U. after   14 cycles
 SCF Done:  E(UM062X) =  -269.977222928     A.U. after   16 cycles
 SCF Done:  E(UM062X) =  -269.977295153     A.U. after   15 cycles
 SCF Done:  E(UM062X) =  -269.977477676     A.U. after   14 cycles
 SCF Done:  E(UM062X) =  -269.977567884     A.U. after   13 cycles
 SCF Done:  E(UM062X) =  -269.977406263     A.U. after   12 cycles
 SCF Done:  E(UM062X) =  -269.977574229     A.U. after   13 cycles
 SCF Done:  E(UM062X) =  -269.977586637     A.U. after   12 cycles
 SCF Done:  E(UM062X) =  -269.977599986     A.U. after   12 cycles
 SCF Done:  E(UM062X) =  -269.977594724     A.U. after   13 cycles
 SCF Done:  E(UM062X) =  -269.977483564     A.U. after   12 cycles
 SCF Done:  E(UM062X) =  -269.977416403     A.U. after   12 cycles
 SCF Done:  E(UM062X) =  -269.977562890     A.U. after   12 cycles
 SCF Done:  E(UM062X) =  -269.977499937     A.U. after   11 cycles
 SCF Done:  E(UM062X) =  -269.977498187     A.U. after   12 cycles
 SCF Done:  E(UM062X) =  -269.977511400     A.U. after   12 cycles
 SCF Done:  E(UM062X) =  -269.977536999     A.U. after   12 cycles
 SCF Done:  E(UM062X) =  -269.977561164     A.U. after   13 cycles
 SCF Done:  E(UM062X) =  -269.977529128     A.U. after   12 cycles
 Optimization completed.
    -- Stationary point found.

                         Standard orientation:
 ---------------------------------------------------------------------
 Center     Atomic      Atomic             Coordinates (Angstroms)
 Number     Number       Type             X           Y           Z
 ---------------------------------------------------------------------
      1          8           0       -2.483788   -0.601895   -0.265452
      2          8           0       -1.997240    0.661775    0.059585
      3          6           0        1.432457    0.254222   -0.489926
      4          6           0        0.312389    0.083161    0.498488
      5          6           0        2.756169   -0.273620    0.077047
      6          1           0        1.546366    1.307926   -0.747482
      7          1           0        1.195860   -0.275709   -1.413175
      8          1           0       -0.842503    0.563440   -0.057320
      9          1           0       -0.001538   -0.941516    0.681633
     10          1           0        0.388016    0.672096    1.408278
     11          1           0        3.027238    0.260666    0.987028
     12          1           0        3.562916   -0.148010   -0.643845
     13          1           0        2.677397   -1.332755    0.320583
     14          1           0       -2.711609   -0.967754    0.597588
 ---------------------------------------------------------------------

 The electronic state is 2-A.
 Alpha  occ. eigenvalues --  -19.68436 -19.68315 -10.55388 -10.54586 -10.53557
 Alpha  occ. eigenvalues --   -1.26509  -0.98952  -0.89817  -0.78596  -0.68529
 Alpha  occ. eigenvalues --   -0.61461  -0.58546  -0.55017  -0.52075  -0.50033
 Alpha  occ. eigenvalues --   -0.46828  -0.46442  -0.42017  -0.40561  -0.39435
 Alpha  occ. eigenvalues --   -0.37263  -0.28938
 Alpha virt. eigenvalues --    0.06189   0.06981   0.10591   0.11092   0.11552
 Alpha virt. eigenvalues --    0.14030   0.15129   0.16252   0.17334   0.18420
 Alpha virt. eigenvalues --    0.21927   0.25314   0.28380   0.28668   0.32124

  Beta  occ. eigenvalues --  -19.68310 -19.67375 -10.54849 -10.54602 -10.53481
  Beta  occ. eigenvalues --   -1.24906  -0.96609  -0.88936  -0.77096  -0.67721
  Beta  occ. eigenvalues --   -0.60146  -0.55397  -0.54462  -0.50612  -0.48817
  Beta  occ. eigenvalues --   -0.46145  -0.44919  -0.41488  -0.40331  -0.37066
  Beta  occ. eigenvalues --   -0.34683
  Beta virt. eigenvalues --   -0.07090   0.06324   0.07072   0.10709   0.11084
  Beta virt. eigenvalues --    0.11643   0.14306   0.15154   0.16628   0.17640
  Beta virt. eigenvalues --    0.18911   0.22251   0.25568   0.28399   0.28676

 Mulliken charges and spin densities:
               1          2
     1  O   -0.248029   0.038799
     2  O   -0.224033   0.374875
     3  C   -0.213173  -0.031963
     4  C   -0.361920   0.661260
     5  C   -0.333904   0.034696
     6  H    0.127749   0.004974
     7  H    0.129260   0.003107
     8  H    0.249102  -0.022132
     9  H    0.130202  -0.035066
    10  H    0.136218  -0.035815
    11  H    0.112065  -0.001787
    12  H    0.115727   0.012423
    13  H    0.113682  -0.001289
    14  H    0.267054  -0.002082
 Sum of Mulliken charges =  -0.00000   1.00000

 Dipole moment (field-independent basis, Debye):
    X=              1.6913    Y=             -1.0163    Z=              1.3514  Tot=              2.3916
 Quadrupole moment (field-independent basis, Debye-Ang):
   XX=            -34.4656   YY=            -32.1094   ZZ=            -32.3335
   XY=              3.8097   XZ=             -4.2924   YZ=             -1.3604

 Normal termination of Gaussian 16 at Thu Sep  5 18:35:19 2019.
