 Gaussian 16, Revision A.03,
 Gaussian 16:  EM64L-G16RevA.03 25-Dec-2016

 ----------------------------------------------------------------------
 #p m062x/cc-pVTZ Opt=(ModRedun,Loose,maxcycles=900) Int(Grid=SG1) scf=
 (maxcycle=900)
 ----------------------------------------------------------------------

 ------------------------------
 Gaussian input prepared by ASE
 ------------------------------
 Symbolic Z-matrix:
 Charge =  0 Multiplicity = 2

 SCF Done:  E(UM062X) =  -269.968363139     A.U. after   16 cycles
 SCF Done:  E(UM062X) =  -269.975454459     A.U. after   15 cycles
 SCF Done:  E(UM062X) =  -269.976874969     A.U. after   14 cycles
 SCF Done:  E(UM062X) =  -269.977189318     A.U. after   14 cycles
 SCF Done:  E(UM062X) =  -269.977066335     A.U. after   15 cycles
 SCF Done:  E(UM062X) =  -269.977262736     A.U. after   12 cycles
 SCF Done:  E(UM062X) =  -269.977200209     A.U. after   15 cycles
 SCF Done:  E(UM062X) =  -269.977502265     A.U. after   15 cycles
 SCF Done:  E(UM062X) =  -269.977348562     A.U. after   16 cycles
 SCF Done:  E(UM062X) =  -269.978247117     A.U. after   13 cycles
 SCF Done:  E(UM062X) =  -269.978864609     A.U. after   13 cycles
 SCF Done:  E(UM062X) =  -269.979306380     A.U. after   13 cycles
 SCF Done:  E(UM062X) =  -269.979082096     A.U. after   14 cycles
 SCF Done:  E(UM062X) =  -269.979463440     A.U. after   12 cycles
 SCF Done:  E(UM062X) =  -269.979499980     A.U. after   12 cycles
 SCF Done:  E(UM062X) =  -269.979521842     A.U. after   11 cycles
 SCF Done:  E(UM062X) =  -269.979532043     A.U. after   11 cycles
 SCF Done:  E(UM062X) =  -269.979540645     A.U. after   11 cycles
 SCF Done:  E(UM062X) =  -269.979545466     A.U. after   11 cycles
 SCF Done:  E(UM062X) =  -269.979554182     A.U. after   12 cycles
 Optimization completed.
    -- Stationary point found.

                         Standard orientation:
 ---------------------------------------------------------------------
 Center     Atomic      Atomic             Coordinates (Angstroms)
 Number     Number       Type             X           Y           Z
 ---------------------------------------------------------------------
      1          8           0        1.867556   -0.430124   -0.570680
      2          8           0        1.643595   -0.018247    0.740791
      3          6           0       -1.227004    0.184176   -0.619953
      4          6           0       -0.345789    1.185424    0.066000
      5          6           0       -1.916062   -0.759790    0.359482
      6          1           0       -0.635437   -0.380253   -1.342459
      7          1           0       -1.979776    0.721532   -1.208778
      8          1           0        0.568197    0.429202    0.748732
      9          1           0        0.314848    1.769763   -0.563266
     10          1           0       -0.815308    1.757885    0.864513
     11          1           0       -1.176894   -1.315032    0.938864
     12          1           0       -2.551401   -1.477065   -0.156288
     13          1           0       -2.537555   -0.206080    1.063542
     14          1           0        1.657247   -1.371844   -0.538918
 ---------------------------------------------------------------------

 The electronic state is 2-A.
 Alpha  occ. eigenvalues --  -19.68643 -19.68209 -10.55241 -10.54613 -10.53357
 Alpha  occ. eigenvalues --   -1.26544  -0.98991  -0.89952  -0.78555  -0.68473
 Alpha  occ. eigenvalues --   -0.62065  -0.58772  -0.53132  -0.52833  -0.51383
 Alpha  occ. eigenvalues --   -0.48192  -0.43408  -0.42125  -0.41191  -0.39776
 Alpha  occ. eigenvalues --   -0.37297  -0.28814
 Alpha virt. eigenvalues --    0.05082   0.08076   0.10632   0.11145   0.12060
 Alpha virt. eigenvalues --    0.13653   0.15543   0.16330   0.17205   0.19853
 Alpha virt. eigenvalues --    0.23401   0.26327   0.27938   0.29017   0.29957

  Beta  occ. eigenvalues --  -19.68528 -19.67288 -10.54704 -10.54630 -10.53346
  Beta  occ. eigenvalues --   -1.24995  -0.96703  -0.89120  -0.77320  -0.67350
  Beta  occ. eigenvalues --   -0.60870  -0.55908  -0.52153  -0.52025  -0.49392
  Beta  occ. eigenvalues --   -0.47580  -0.42554  -0.41557  -0.40839  -0.36493
  Beta  occ. eigenvalues --   -0.35754
  Beta virt. eigenvalues --   -0.06835   0.05140   0.08023   0.10528   0.11116
  Beta virt. eigenvalues --    0.12387   0.13917   0.15617   0.16436   0.17441
  Beta virt. eigenvalues --    0.20074   0.24141   0.26557   0.28045   0.29000

 Mulliken charges and spin densities:
               1          2
     1  O   -0.249062   0.032693
     2  O   -0.228934   0.366545
     3  C   -0.252174  -0.045496
     4  C   -0.368796   0.675038
     5  C   -0.328731   0.004723
     6  H    0.142632   0.007251
     7  H    0.135436   0.045714
     8  H    0.237026  -0.019445
     9  H    0.166769  -0.037127
    10  H    0.138838  -0.030393
    11  H    0.108725   0.001787
    12  H    0.114949   0.000702
    13  H    0.112243   0.000120
    14  H    0.271079  -0.002112
 Sum of Mulliken charges =  -0.00000   1.00000

 Dipole moment (field-independent basis, Debye):
    X=             -2.1491    Y=             -0.8585    Z=             -0.5630  Tot=              2.3817
 Quadrupole moment (field-independent basis, Debye-Ang):
   XX=            -36.8905   YY=            -29.1535   ZZ=            -33.5765
   XY=             -2.5400   XZ=             -0.9822   YZ=              1.3239

 Normal termination of Gaussian 16 at Thu Sep  5 19:41:52 2019.
