 Gaussian 16, Revision A.03,
 Gaussian 16:  EM64L-G16RevA.03 25-Dec-2016

 ----------------------------------------------------------------------
 #p m062x/cc-pVTZ Opt=(ModRedun,Loose,maxcycles=900) Int(Grid=SG1) scf=
 (maxcycle=900)
 ----------------------------------------------------------------------

 ------------------------------
 Gaussian input prepared by ASE
 ------------------------------
 Symbolic Z-matrix:
 Charge =  0 Multiplicity = 2

 SCF Done:  E(UM062X) =  -269.969787035     A.U. after   16 cycles
 SCF Done:  E(UM062X) =  -269.976535939     A.U. after   14 cycles
 SCF Done:  E(UM062X) =  -269.978009412     A.U. after   16 cycles
 SCF Done:  E(UM062X) =  -269.978393730     A.U. after   14 cycles
 SCF Done:  E(UM062X) =  -269.978845853     A.U. after   14 cycles
 SCF Done:  E(UM062X) =  -269.979095881     A.U. after   14 cycles
 SCF Done:  E(UM062X) =  -269.979706508     A.U. after   14 cycles
 SCF Done:  E(UM062X) =  -269.979838994     A.U. after   12 cycles
 SCF Done:  E(UM062X) =  -269.979853270     A.U. after   11 cycles
 SCF Done:  E(UM062X) =  -269.979823356     A.U. after   12 cycles
 SCF Done:  E(UM062X) =  -269.979837041     A.U. after   12 cycles
 SCF Done:  E(UM062X) =  -269.979857205     A.U. after   11 cycles
 Optimization completed.
    -- Stationary point found.

                         Standard orientation:
 ---------------------------------------------------------------------
 Center     Atomic      Atomic             Coordinates (Angstroms)
 Number     Number       Type             X           Y           Z
 ---------------------------------------------------------------------
      1          8           0       -1.770354   -0.648640    0.486442
      2          8           0       -1.656607    0.031971   -0.721880
      3          6           0        1.225981    0.179240    0.620722
      4          6           0        0.358406    1.198294   -0.057630
      5          6           0        1.895294   -0.769765   -0.366158
      6          1           0        0.627157   -0.387999    1.333695
      7          1           0        1.987639    0.704374    1.209518
      8          1           0       -0.571562    0.455407   -0.733385
      9          1           0       -0.259552    1.818830    0.582778
     10          1           0        0.828189    1.757245   -0.865762
     11          1           0        1.142973   -1.323879   -0.927854
     12          1           0        2.531332   -1.489064    0.145721
     13          1           0        2.511851   -0.222701   -1.079630
     14          1           0       -2.260425   -0.025475    1.036818
 ---------------------------------------------------------------------

 The electronic state is 2-A.
 Alpha  occ. eigenvalues --  -19.68789 -19.68385 -10.55371 -10.54199 -10.52680
 Alpha  occ. eigenvalues --   -1.26769  -0.99129  -0.89638  -0.78295  -0.68210
 Alpha  occ. eigenvalues --   -0.61792  -0.59082  -0.53608  -0.51889  -0.51738
 Alpha  occ. eigenvalues --   -0.47898  -0.42886  -0.41795  -0.40825  -0.39818
 Alpha  occ. eigenvalues --   -0.37484  -0.28826
 Alpha virt. eigenvalues --    0.05374   0.08103   0.10281   0.11573   0.12318
 Alpha virt. eigenvalues --    0.14809   0.15198   0.16612   0.16918   0.19957
 Alpha virt. eigenvalues --    0.23145   0.26442   0.28266   0.29157   0.30290

  Beta  occ. eigenvalues --  -19.68664 -19.67444 -10.54829 -10.54220 -10.52671
  Beta  occ. eigenvalues --   -1.25181  -0.96797  -0.88776  -0.77082  -0.67147
  Beta  occ. eigenvalues --   -0.60432  -0.56320  -0.52848  -0.51107  -0.49333
  Beta  occ. eigenvalues --   -0.47296  -0.42035  -0.41255  -0.40428  -0.37142
  Beta  occ. eigenvalues --   -0.35255
  Beta virt. eigenvalues --   -0.06864   0.05553   0.08036   0.10351   0.11342
  Beta virt. eigenvalues --    0.12634   0.15086   0.15301   0.16859   0.17061
  Beta virt. eigenvalues --    0.20197   0.23815   0.26625   0.28378   0.29224

 Mulliken charges and spin densities:
               1          2
     1  O   -0.246704   0.036823
     2  O   -0.222759   0.372931
     3  C   -0.216202  -0.043661
     4  C   -0.405715   0.664689
     5  C   -0.328581   0.003863
     6  H    0.139276   0.007537
     7  H    0.130331   0.046169
     8  H    0.244503  -0.021856
     9  H    0.152465  -0.037542
    10  H    0.142142  -0.029324
    11  H    0.122526   0.001693
    12  H    0.112250   0.000583
    13  H    0.105462   0.000185
    14  H    0.271007  -0.002089
 Sum of Mulliken charges =  -0.00000   1.00000

 Dipole moment (field-independent basis, Debye):
    X=              0.9282    Y=              1.4989    Z=              1.4738  Tot=              2.2979
 Quadrupole moment (field-independent basis, Debye-Ang):
   XX=            -32.1551   YY=            -33.3932   ZZ=            -31.7359
   XY=             -1.9209   XZ=             -4.0801   YZ=              0.2943

 Normal termination of Gaussian 16 at Thu Sep  5 16:42:16 2019.
