 Gaussian 16, Revision A.03,
 Gaussian 16:  EM64L-G16RevA.03 25-Dec-2016

 ----------------------------------------------------------------------
 #p m062x/cc-pVTZ opt=(calcfc,maxcycles=900,Tight) freq IOP(7/33=1,2/16
 =3) scf=(maxcycle=900)
 ----------------------------------------------------------------------

 ------------------------------
 Gaussian input prepared by ASE
 ------------------------------
 Symbolic Z-matrix:
 Charge =  0 Multiplicity = 1

 SCF Done:  E(RM062X) =  -268.310114080     A.U. after   13 cycles
 SCF Done:  E(RM062X) =  -268.317090193     A.U. after   13 cycles
 SCF Done:  E(RM062X) =  -268.256653658     A.U. after   14 cycles
 SCF Done:  E(RM062X) =  -268.319966089     A.U. after   12 cycles
 SCF Done:  E(RM062X) =  -268.321239594     A.U. after   12 cycles
 SCF Done:  E(RM062X) =  -268.321488054     A.U. after   12 cycles
 SCF Done:  E(RM062X) =  -268.322060479     A.U. after   12 cycles
 SCF Done:  E(RM062X) =  -268.322810517     A.U. after   11 cycles
 SCF Done:  E(RM062X) =  -268.323382521     A.U. after   13 cycles
 SCF Done:  E(RM062X) =  -268.323971981     A.U. after   11 cycles
 SCF Done:  E(RM062X) =  -268.324136356     A.U. after   10 cycles
 SCF Done:  E(RM062X) =  -268.324184623     A.U. after   10 cycles
 SCF Done:  E(RM062X) =  -268.324186313     A.U. after    8 cycles
 SCF Done:  E(RM062X) =  -268.324186355     A.U. after    7 cycles
 SCF Done:  E(RM062X) =  -268.324186359     A.U. after    5 cycles
 SCF Done:  E(RM062X) =  -268.324186359     A.U. after    3 cycles
 SCF Done:  E(RM062X) =  -268.324186361     A.U. after    4 cycles
 Optimization completed.
    -- Stationary point found.
 Normal termination of Gaussian 16 at Thu Sep  5 16:50:56 2019.

 ----------------------------------------------------------------------
 #P Geom=AllCheck Guess=TCheck SCRF=Check Test GenChk RM062X/CC-pVTZ Fr
 eq
 ----------------------------------------------------------------------

 Structure from the checkpoint file:  "/scratch/harms.n/gauss_scrdir/Gau-24439.chk"
 ------------------------------
 Gaussian input prepared by ASE
 ------------------------------
 Charge =  0 Multiplicity = 1

                         Standard orientation:
 ---------------------------------------------------------------------
 Center     Atomic      Atomic             Coordinates (Angstroms)
 Number     Number       Type             X           Y           Z
 ---------------------------------------------------------------------
      1          8           0        0.799603   -0.289821   -0.394620
      2          8           0       -1.881923   -0.695899    0.085836
      3          6           0        2.064260   -0.195941    0.229819
      4          6           0       -0.031432    0.766360   -0.112999
      5          6           0       -1.321056    0.539150    0.093072
      6          1           0        2.578145    0.719680   -0.075850
      7          1           0        1.965095   -0.202334    1.317812
      8          1           0        2.646601   -1.055864   -0.089855
      9          1           0        0.400140    1.758622   -0.112223
     10          1           0       -2.025340    1.338185    0.263399
     11          1           0       -1.176710   -1.329950   -0.092366
 ---------------------------------------------------------------------

 SCF Done:  E(RM062X) =  -268.324186361     A.U. after    1 cycles

 The electronic state is 1-A.
 Alpha  occ. eigenvalues --  -19.65087 -19.64216 -10.59097 -10.58531 -10.57563
 Alpha  occ. eigenvalues --   -1.19407  -1.16694  -0.86004  -0.78171  -0.68481
 Alpha  occ. eigenvalues --   -0.61262  -0.59037  -0.54689  -0.51218  -0.49965
 Alpha  occ. eigenvalues --   -0.46956  -0.44055  -0.42217  -0.38448  -0.27047
 Alpha virt. eigenvalues --    0.06778   0.07854   0.09253   0.10363   0.13455
 Alpha virt. eigenvalues --    0.13939   0.15798   0.16070   0.21611   0.28538
 Alpha virt. eigenvalues --    0.29851   0.31059   0.32804   0.35064   0.36154

 Mulliken charges:
               1
     1  O   -0.282990
     2  O   -0.345157
     3  C   -0.125769
     4  C   -0.056035
     5  C   -0.007465
     6  H    0.087422
     7  H    0.090426
     8  H    0.111796
     9  H    0.112298
    10  H    0.150443
    11  H    0.265032
 Sum of Mulliken charges =  -0.00000

 Dipole moment (field-independent basis, Debye):
    X=              2.0412    Y=              0.5953    Z=              0.5547  Tot=              2.1974
 Quadrupole moment (field-independent basis, Debye-Ang):
   XX=            -29.8757   YY=            -27.0911   ZZ=            -32.5254
   XY=             -1.8063   XZ=              0.8084   YZ=              0.2059

  Exact polarizability:  59.971   0.414  41.844  -1.151  -0.132  31.795
 Approx polarizability:  65.049   2.294  49.137  -2.430   0.348  39.306

                      1                      2                      3
                      A                      A                      A
 Frequencies --     69.3996               187.0075               231.0482
 Red. masses --      3.3050                 1.3310                 2.5768
 Frc consts  --      0.0094                 0.0274                 0.0810
 IR Inten    --      3.2968                 0.3333                 6.3070

                      4                      5                      6
                      A                      A                      A
 Frequencies --    358.4204               479.4466               586.1050
 Red. masses --      2.9422                 1.1816                 3.1567
 Frc consts  --      0.2227                 0.1600                 0.6389
 IR Inten    --      6.4087                90.2375                16.8972

                      7                      8                      9
                      A                      A                      A
 Frequencies --    745.3476               774.6727               919.0088
 Red. masses --      3.8774                 1.3399                 1.2745
 Frc consts  --      1.2691                 0.4738                 0.6342
 IR Inten    --     21.3292                37.6918                 5.9181

                     10                     11                     12
                      A                      A                      A
 Frequencies --   1009.3159              1116.8064              1178.1504
 Red. masses --      3.5633                 2.6547                 3.5681
 Frc consts  --      2.1387                 1.9508                 2.9180
 IR Inten    --     21.6911               105.0888               203.5096

                     13                     14                     15
                      A                      A                      A
 Frequencies --   1189.1854              1212.8010              1276.9408
 Red. masses --      1.2955                 1.1908                 1.6849
 Frc consts  --      1.0794                 1.0320                 1.6187
 IR Inten    --      4.1615                73.9219                66.6670

                     16                     17                     18
                      A                      A                      A
 Frequencies --   1371.2512              1418.0325              1492.3083
 Red. masses --      1.4864                 1.3584                 1.1965
 Frc consts  --      1.6467                 1.6094                 1.5700
 IR Inten    --      0.5133                95.4548                11.4246

                     19                     20                     21
                      A                      A                      A
 Frequencies --   1499.5324              1517.3793              1781.4360
 Red. masses --      1.0447                 1.0495                 6.2692
 Frc consts  --      1.3840                 1.4237                11.7219
 IR Inten    --      7.4380                11.0575                61.4685

                     22                     23                     24
                      A                      A                      A
 Frequencies --   3035.8190              3096.2867              3162.2657
 Red. masses --      1.0346                 1.1049                 1.1004
 Frc consts  --      5.6180                 6.2412                 6.4834
 IR Inten    --     53.7746                36.6873                18.0945

                     25                     26                     27
                      A                      A                      A
 Frequencies --   3205.6029              3258.4742              3828.7092
 Red. masses --      1.0901                 1.0982                 1.0647
 Frc consts  --      6.5999                 6.8703                 9.1953
 IR Inten    --      7.0098                 7.2802                58.8442

 - Thermochemistry -
 -------------------
 Temperature   298.150 Kelvin.  Pressure   1.00000 Atm.
 Atom     1 has atomic number  8 and mass  15.99491

 Molecular mass:    74.03678 amu.
 Principal axes and moments of inertia in atomic units:
                           1         2         3
     Eigenvalues --   120.53117 597.81482 680.37786
           X            0.99986  -0.01266   0.01109
           Y            0.01263   0.99992   0.00227
           Z           -0.01111  -0.00213   0.99994
 This molecule is an asymmetric top.
 Rotational symmetry number  1.
 Rotational temperatures (Kelvin)      0.71860     0.14488     0.12730
 Rotational constants (GHZ):          14.97323     3.01890     2.65256
 Zero-point vibrational energy     239257.6 (Joules/Mol)
                                   57.18395 (Kcal/Mol)
 Warning -- explicit consideration of   6 degrees of freedom as
           vibrations may cause significant error
 Vibrational temperatures:     99.85   269.06   332.43   515.69   689.82
          (Kelvin)            843.27  1072.39  1114.58  1322.25  1452.18
                             1606.84  1695.10  1710.97  1744.95  1837.23
                             1972.92  2040.23  2147.10  2157.49  2183.17
                             2563.09  4367.87  4454.87  4549.80  4612.15
                             4688.22  5508.66

 Zero-point correction=                           0.091128 (Hartree/Particle)
 Thermal correction to Energy=                    0.096997
 Thermal correction to Enthalpy=                  0.097941
 Thermal correction to Gibbs Free Energy=         0.061912
 Sum of electronic and zero-point Energies=           -268.233058
 Sum of electronic and thermal Energies=              -268.227190
 Sum of electronic and thermal Enthalpies=            -268.226245
 Sum of electronic and thermal Free Energies=         -268.262274

                     E (Thermal)             CV                S
                      KCal/Mol        Cal/Mol-Kelvin    Cal/Mol-Kelvin
 Total                   60.866             19.297             75.829
 Electronic               0.000              0.000              0.000
 Translational            0.889              2.981             38.822
 Rotational               0.889              2.981             25.397
 Vibrational             59.089             13.335             11.610
 Vibration     1          0.598              1.969              4.170
 Vibration     2          0.632              1.858              2.257
 Vibration     3          0.653              1.794              1.871
 Vibration     4          0.733              1.558              1.129
 Vibration     5          0.836              1.296              0.712
 Vibration     6          0.943              1.061              0.474

                           ! Non-Optimized Parameters !
 Normal termination of Gaussian 16 at Thu Sep  5 17:16:42 2019.
