 Gaussian 16, Revision A.03,
 Gaussian 16:  EM64L-G16RevA.03 25-Dec-2016

 ----------------------------------------------------------------------
 #p m062x/cc-pVTZ opt=(ts,calcfc,noeigentest,maxcycles=900) freq scf=(m
 axcycle=900) IOP(7/33=1,2/16=3)
 ----------------------------------------------------------------------

 ------------------------------
 Gaussian input prepared by ASE
 ------------------------------
 Symbolic Z-matrix:
 Charge =  0 Multiplicity = 2

 SCF Done:  E(UM062X) =  -269.979878873     A.U. after   18 cycles
 SCF Done:  E(UM062X) =  -269.983698377     A.U. after   17 cycles
 SCF Done:  E(UM062X) =  -269.984668071     A.U. after   16 cycles
 SCF Done:  E(UM062X) =  -269.984757219     A.U. after   14 cycles
 SCF Done:  E(UM062X) =  -269.984163052     A.U. after   16 cycles
 SCF Done:  E(UM062X) =  -269.984753800     A.U. after   15 cycles
 SCF Done:  E(UM062X) =  -269.984848011     A.U. after   15 cycles
 SCF Done:  E(UM062X) =  -269.984859711     A.U. after   15 cycles
 SCF Done:  E(UM062X) =  -269.984905524     A.U. after   15 cycles
 SCF Done:  E(UM062X) =  -269.985064675     A.U. after   15 cycles
 SCF Done:  E(UM062X) =  -269.985146788     A.U. after   13 cycles
 SCF Done:  E(UM062X) =  -269.985095654     A.U. after   14 cycles
 SCF Done:  E(UM062X) =  -269.985152177     A.U. after   14 cycles
 SCF Done:  E(UM062X) =  -269.985088479     A.U. after   13 cycles
 SCF Done:  E(UM062X) =  -269.985148982     A.U. after   13 cycles
 SCF Done:  E(UM062X) =  -269.985155912     A.U. after   12 cycles
 SCF Done:  E(UM062X) =  -269.985156395     A.U. after   10 cycles
 SCF Done:  E(UM062X) =  -269.985156202     A.U. after    8 cycles
 SCF Done:  E(UM062X) =  -269.985156389     A.U. after   10 cycles
 Optimization completed.
    -- Stationary point found.
 Normal termination of Gaussian 16 at Fri Sep  6 08:08:53 2019.

 ----------------------------------------------------------------------
 #P Geom=AllCheck Guess=TCheck SCRF=Check Test GenChk UM062X/CC-pVTZ Fr
 eq
 ----------------------------------------------------------------------

 Structure from the checkpoint file:  "/scratch/harms.n/gauss_scrdir/Gau-48590.chk"
 ------------------------------
 Gaussian input prepared by ASE
 ------------------------------
 Charge =  0 Multiplicity = 2

                         Standard orientation:
 ---------------------------------------------------------------------
 Center     Atomic      Atomic             Coordinates (Angstroms)
 Number     Number       Type             X           Y           Z
 ---------------------------------------------------------------------
      1          8           0       -1.713283   -0.668115    0.435038
      2          8           0       -1.612707    0.233055   -0.617354
      3          6           0        1.298041    0.146170    0.577843
      4          6           0        0.586822    1.305702   -0.055432
      5          6           0        1.525143   -1.002218   -0.397679
      6          1           0        0.726704   -0.206164    1.439012
      7          1           0        2.259127    0.497207    0.973509
      8          1           0       -0.603069    0.806226   -0.406786
      9          1           0        0.324188    2.133121    0.598574
     10          1           0        0.977892    1.630572   -1.017595
     11          1           0        0.571126   -1.379826   -0.764353
     12          1           0        2.059066   -1.823910    0.077132
     13          1           0        2.110729   -0.669273   -1.255787
     14          1           0       -2.277879   -0.205397    1.066426
 ---------------------------------------------------------------------

 SCF Done:  E(UM062X) =  -269.985156389     A.U. after    1 cycles

 The electronic state is 2-A.
 Alpha  occ. eigenvalues --  -19.69099 -19.68648 -10.55209 -10.54054 -10.52094
 Alpha  occ. eigenvalues --   -1.27041  -0.99088  -0.89459  -0.78028  -0.67974
 Alpha  occ. eigenvalues --   -0.62095  -0.59186  -0.53159  -0.52303  -0.51302
 Alpha  occ. eigenvalues --   -0.47654  -0.42842  -0.41459  -0.40599  -0.39872
 Alpha  occ. eigenvalues --   -0.37656  -0.29470
 Alpha virt. eigenvalues --    0.05613   0.08355   0.10540   0.11302   0.12884
 Alpha virt. eigenvalues --    0.14912   0.15065   0.16624   0.18023   0.20265
 Alpha virt. eigenvalues --    0.25222   0.27128   0.28824   0.29323   0.29529

  Beta  occ. eigenvalues --  -19.68932 -19.67683 -10.54702 -10.54074 -10.52087
  Beta  occ. eigenvalues --   -1.25350  -0.96605  -0.88614  -0.76844  -0.66961
  Beta  occ. eigenvalues --   -0.60801  -0.56104  -0.52409  -0.50901  -0.49319
  Beta  occ. eigenvalues --   -0.47084  -0.41780  -0.40975  -0.40285  -0.36560
  Beta  occ. eigenvalues --   -0.35656
  Beta virt. eigenvalues --   -0.07782   0.05674   0.08257   0.10550   0.11296
  Beta virt. eigenvalues --    0.12892   0.15145   0.15606   0.16705   0.18052
  Beta virt. eigenvalues --    0.20342   0.25660   0.27442   0.29061   0.29402

 Mulliken charges and spin densities:
               1          2
     1  O   -0.243044   0.051059
     2  O   -0.214988   0.392637
     3  C   -0.244434  -0.037141
     4  C   -0.388360   0.615541
     5  C   -0.345913   0.001804
     6  H    0.140716   0.008154
     7  H    0.137636   0.044512
     8  H    0.236335  -0.020737
     9  H    0.142928  -0.028516
    10  H    0.141833  -0.027371
    11  H    0.144651   0.002379
    12  H    0.113021  -0.000144
    13  H    0.107384   0.000292
    14  H    0.272235  -0.002467
 Sum of Mulliken charges =   0.00000   1.00000

 Dipole moment (field-independent basis, Debye):
    X=              0.7153    Y=              1.1972    Z=              1.6831  Tot=              2.1858
 Quadrupole moment (field-independent basis, Debye-Ang):
   XX=            -31.3282   YY=            -33.1707   ZZ=            -31.4826
   XY=             -0.6620   XZ=             -4.3421   YZ=              0.0645

  Exact polarizability:  69.180   7.578  53.943  -0.076  -1.016  47.313
 Approx polarizability:  71.526   9.165  60.899   1.098  -2.882  58.107

 ******    1 imaginary frequencies (negative Signs) ******

                      1                      2                      3
                      A                      A                      A
 Frequencies --  -1851.6583                68.3690               109.2400
 Red. masses --      1.1001                 4.2484                 3.5572
 Frc consts  --      2.2222                 0.0117                 0.0250
 IR Inten    --   1275.7028                 6.4387                 4.0003

                      4                      5                      6
                      A                      A                      A
 Frequencies --    144.8837               216.5135               284.7397
 Red. masses --      1.8361                 1.6975                 1.5229
 Frc consts  --      0.0227                 0.0469                 0.0727
 IR Inten    --      0.1148                 3.5546                 5.4471

                      7                      8                      9
                      A                      A                      A
 Frequencies --    364.5706               414.8517               516.2430
 Red. masses --      1.4134                 1.8469                 1.2537
 Frc consts  --      0.1107                 0.1873                 0.1969
 IR Inten    --     61.4840                31.3548                14.3271

                     10                     11                     12
                      A                      A                      A
 Frequencies --    572.4365               756.6450               893.7829
 Red. masses --      3.0717                 1.1408                 2.2294
 Frc consts  --      0.5930                 0.3848                 1.0493
 IR Inten    --      5.8577                11.9593                 3.8816

                     13                     14                     15
                      A                      A                      A
 Frequencies --    928.3051               958.0425              1078.0878
 Red. masses --      1.1619                 1.1705                 9.4095
 Frc consts  --      0.5899                 0.6330                 6.4435
 IR Inten    --      2.5556                 7.8372                25.6912

                     16                     17                     18
                      A                      A                      A
 Frequencies --   1088.0077              1123.5701              1187.2895
 Red. masses --      1.9752                 1.2815                 1.5672
 Frc consts  --      1.3776                 0.9531                 1.3017
 IR Inten    --      4.9197                14.6946                 1.1846

                     19                     20                     21
                      A                      A                      A
 Frequencies --   1198.4828              1287.3506              1368.6073
 Red. masses --      1.6333                 1.1811                 1.4326
 Frc consts  --      1.3822                 1.1532                 1.5811
 IR Inten    --      2.3425                 3.4043                 2.3188

                     22                     23                     24
                      A                      A                      A
 Frequencies --   1409.8632              1417.2420              1452.2480
 Red. masses --      1.1168                 1.2706                 1.0420
 Frc consts  --      1.3079                 1.5036                 1.2947
 IR Inten    --     47.7890                 5.0242                 2.3043

                     25                     26                     27
                      A                      A                      A
 Frequencies --   1461.9839              1470.7617              1504.4326
 Red. masses --      1.1464                 1.0819                 1.0404
 Frc consts  --      1.4437                 1.3788                 1.3874
 IR Inten    --      8.7795                 3.3594                 8.2974

                     28                     29                     30
                      A                      A                      A
 Frequencies --   1508.3766              3015.7536              3063.9851
 Red. masses --      1.0545                 1.0704                 1.0373
 Frc consts  --      1.4136                 5.7358                 5.7376
 IR Inten    --      4.1744                13.4347                18.9212

                     31                     32                     33
                      A                      A                      A
 Frequencies --   3083.7165              3100.9457              3134.0968
 Red. masses --      1.0853                 1.0553                 1.1012
 Frc consts  --      6.0805                 5.9790                 6.3727
 IR Inten    --      8.7185                13.0524                22.1061

                     34                     35                     36
                      A                      A                      A
 Frequencies --   3146.5253              3184.3656              3812.0624
 Red. masses --      1.1030                 1.1114                 1.0684
 Frc consts  --      6.4339                 6.6400                 9.1473
 IR Inten    --     14.1561                13.6240                62.9329

 - Thermochemistry -
 -------------------
 Temperature   298.150 Kelvin.  Pressure   1.00000 Atm.
 Atom     1 has atomic number  8 and mass  15.99491

 Molecular mass:    77.06025 amu.
 Principal axes and moments of inertia in atomic units:
                           1         2         3
     Eigenvalues --   277.24640 659.92508 773.48389
           X            0.99953  -0.02372  -0.01927
           Y            0.02435   0.99915   0.03328
           Z            0.01847  -0.03373   0.99926
 This molecule is an asymmetric top.
 Rotational symmetry number  1.
 Rotational temperatures (Kelvin)      0.31241     0.13125     0.11198
 Rotational constants (GHZ):           6.50952     2.73477     2.33326
    1 imaginary frequencies ignored.
 Zero-point vibrational energy     301018.6 (Joules/Mol)
                                   71.94517 (Kcal/Mol)
 Warning -- explicit consideration of   9 degrees of freedom as
           vibrations may cause significant error
 Vibrational temperatures:     98.37   157.17   208.46   311.51   409.68
          (Kelvin)            524.54   596.88   742.76   823.61  1088.64
                             1285.95  1335.62  1378.41  1551.13  1565.40
                             1616.57  1708.24  1724.35  1852.21  1969.12
                             2028.48  2039.10  2089.46  2103.47  2116.10
                             2164.54  2170.22  4339.00  4408.39  4436.78
                             4461.57  4509.27  4527.15  4581.59  5484.71

 Zero-point correction=                           0.114652 (Hartree/Particle)
 Thermal correction to Energy=                    0.122065
 Thermal correction to Enthalpy=                  0.123009
 Thermal correction to Gibbs Free Energy=         0.082784
 Sum of electronic and zero-point Energies=           -269.870504
 Sum of electronic and thermal Energies=              -269.863091
 Sum of electronic and thermal Enthalpies=            -269.862147
 Sum of electronic and thermal Free Energies=         -269.902372

                     E (Thermal)             CV                S
                      KCal/Mol        Cal/Mol-Kelvin    Cal/Mol-Kelvin
 Total                   76.597             24.856             84.661
 Electronic               0.000              0.000              1.377
 Translational            0.889              2.981             38.941
 Rotational               0.889              2.981             26.451
 Vibrational             74.820             18.894             17.891
 Vibration     1          0.598              1.969              4.200
 Vibration     2          0.606              1.942              3.282
 Vibration     3          0.616              1.908              2.738
 Vibration     4          0.645              1.816              1.988
 Vibration     5          0.683              1.702              1.505
 Vibration     6          0.738              1.545              1.103
 Vibration     7          0.778              1.438              0.910
 Vibration     8          0.871              1.214              0.619
 Vibration     9          0.929              1.091              0.500

 Optimization completed.
    -- Stationary point found.
 Normal termination of Gaussian 16 at Fri Sep  6 09:21:00 2019.
