 Gaussian 16, Revision A.03,
 Gaussian 16:  EM64L-G16RevA.03 25-Dec-2016

 ----------------------------------------------------------------------
 #p m062x/cc-pVTZ Opt=(ModRedun,Loose,maxcycles=900) Int(Grid=SG1) scf=
 (maxcycle=900)
 ----------------------------------------------------------------------

 ------------------------------
 Gaussian input prepared by ASE
 ------------------------------
 Symbolic Z-matrix:
 Charge =  0 Multiplicity = 2

 SCF Done:  E(UM062X) =  -269.965078080     A.U. after   16 cycles
 SCF Done:  E(UM062X) =  -269.972411484     A.U. after   15 cycles
 SCF Done:  E(UM062X) =  -269.973822637     A.U. after   16 cycles
 SCF Done:  E(UM062X) =  -269.974312812     A.U. after   15 cycles
 SCF Done:  E(UM062X) =  -269.974372810     A.U. after   16 cycles
 SCF Done:  E(UM062X) =  -269.975445598     A.U. after   15 cycles
 SCF Done:  E(UM062X) =  -269.975187017     A.U. after   16 cycles
 SCF Done:  E(UM062X) =  -269.976995997     A.U. after   14 cycles
 SCF Done:  E(UM062X) =  -269.975740116     A.U. after   16 cycles
 SCF Done:  E(UM062X) =  -269.977750464     A.U. after   13 cycles
 SCF Done:  E(UM062X) =  -269.979231232     A.U. after   14 cycles
 SCF Done:  E(UM062X) =  -269.979725976     A.U. after   13 cycles
 SCF Done:  E(UM062X) =  -269.947510248     A.U. after   15 cycles
 SCF Done:  E(UM062X) =  -269.963063261     A.U. after   16 cycles
 SCF Done:  E(UM062X) =  -269.980055937     A.U. after   13 cycles
 SCF Done:  E(UM062X) =  -269.980437502     A.U. after   14 cycles
 SCF Done:  E(UM062X) =  -269.980491741     A.U. after   12 cycles
 SCF Done:  E(UM062X) =  -269.980545227     A.U. after   13 cycles
 SCF Done:  E(UM062X) =  -269.980577290     A.U. after   12 cycles
 SCF Done:  E(UM062X) =  -269.980586093     A.U. after   11 cycles
 Optimization completed.
    -- Stationary point found.

                         Standard orientation:
 ---------------------------------------------------------------------
 Center     Atomic      Atomic             Coordinates (Angstroms)
 Number     Number       Type             X           Y           Z
 ---------------------------------------------------------------------
      1          8           0       -1.675063   -0.612698    0.465321
      2          8           0       -1.468956    0.197255   -0.651344
      3          6           0        1.231410    0.127797    0.584276
      4          6           0        0.592679    1.321001   -0.060858
      5          6           0        1.441803   -1.032426   -0.379694
      6          1           0        0.628194   -0.194927    1.434453
      7          1           0        2.194697    0.443425    1.002147
      8          1           0       -0.721379    1.014034   -0.289743
      9          1           0        0.506114    2.214096    0.555302
     10          1           0        0.914551    1.533964   -1.077834
     11          1           0        0.485788   -1.396514   -0.750441
     12          1           0        1.961427   -1.857559    0.105073
     13          1           0        2.037816   -0.714210   -1.235752
     14          1           0       -2.450400   -0.217001    0.882634
 ---------------------------------------------------------------------

 The electronic state is 2-A.
 Alpha  occ. eigenvalues --  -19.68747 -19.68412 -10.55258 -10.53715 -10.51696
 Alpha  occ. eigenvalues --   -1.26636  -0.99246  -0.89034  -0.77791  -0.67675
 Alpha  occ. eigenvalues --   -0.62038  -0.59093  -0.52888  -0.52028  -0.50603
 Alpha  occ. eigenvalues --   -0.47477  -0.42064  -0.41185  -0.40446  -0.39677
 Alpha  occ. eigenvalues --   -0.37600  -0.28650
 Alpha virt. eigenvalues --    0.06062   0.08393   0.10545   0.11315   0.13298
 Alpha virt. eigenvalues --    0.14748   0.14905   0.16784   0.18615   0.19727
 Alpha virt. eigenvalues --    0.24359   0.26966   0.28480   0.29733   0.30177

  Beta  occ. eigenvalues --  -19.68615 -19.67492 -10.54716 -10.53741 -10.51695
  Beta  occ. eigenvalues --   -1.25055  -0.96925  -0.88172  -0.76531  -0.66672
  Beta  occ. eigenvalues --   -0.60862  -0.55994  -0.52050  -0.50404  -0.49382
  Beta  occ. eigenvalues --   -0.46870  -0.41004  -0.40710  -0.40048  -0.36261
  Beta  occ. eigenvalues --   -0.36224
  Beta virt. eigenvalues --   -0.06898   0.06064   0.08262   0.10477   0.11330
  Beta virt. eigenvalues --    0.13335   0.14994   0.15323   0.16863   0.18584
  Beta virt. eigenvalues --    0.19929   0.24805   0.27301   0.28511   0.29840

 Mulliken charges and spin densities:
               1          2
     1  O   -0.245159   0.038408
     2  O   -0.232745   0.359395
     3  C   -0.244352  -0.042628
     4  C   -0.368995   0.662574
     5  C   -0.345634   0.000509
     6  H    0.147864   0.012863
     7  H    0.136131   0.040074
     8  H    0.235188  -0.015810
     9  H    0.138252  -0.024930
    10  H    0.146071  -0.031826
    11  H    0.149960   0.002213
    12  H    0.108975  -0.000269
    13  H    0.103255   0.000761
    14  H    0.271189  -0.001334
 Sum of Mulliken charges =  -0.00000   1.00000

 Dipole moment (field-independent basis, Debye):
    X=              0.1275    Y=              1.3340    Z=              1.4338  Tot=              1.9625
 Quadrupole moment (field-independent basis, Debye-Ang):
   XX=            -29.3588   YY=            -32.8225   ZZ=            -32.4438
   XY=             -0.6492   XZ=             -3.7336   YZ=              0.0838

 Normal termination of Gaussian 16 at Thu Sep  5 18:52:41 2019.
