 Gaussian 16, Revision A.03,
 Gaussian 16:  EM64L-G16RevA.03 25-Dec-2016

 ----------------------------------------------------------------------
 #p m062x/cc-pVTZ opt=(ts,calcfc,noeigentest,maxcycles=900) freq scf=(m
 axcycle=900) IOP(7/33=1,2/16=3)
 ----------------------------------------------------------------------

 ------------------------------
 Gaussian input prepared by ASE
 ------------------------------
 Symbolic Z-matrix:
 Charge =  0 Multiplicity = 2

 SCF Done:  E(UM062X) =  -269.978650469     A.U. after   18 cycles
 SCF Done:  E(UM062X) =  -269.982445541     A.U. after   18 cycles
 SCF Done:  E(UM062X) =  -269.983629161     A.U. after   16 cycles
 SCF Done:  E(UM062X) =  -269.983782847     A.U. after   14 cycles
 SCF Done:  E(UM062X) =  -269.983792348     A.U. after   13 cycles
 SCF Done:  E(UM062X) =  -269.983791015     A.U. after   13 cycles
 SCF Done:  E(UM062X) =  -269.983793432     A.U. after   13 cycles
 SCF Done:  E(UM062X) =  -269.983793622     A.U. after   11 cycles
 SCF Done:  E(UM062X) =  -269.983793939     A.U. after   10 cycles
 SCF Done:  E(UM062X) =  -269.983169976     A.U. after   16 cycles
 SCF Done:  E(UM062X) =  -269.983834809     A.U. after   14 cycles
 SCF Done:  E(UM062X) =  -269.983922245     A.U. after   15 cycles
 SCF Done:  E(UM062X) =  -269.983878271     A.U. after   14 cycles
 SCF Done:  E(UM062X) =  -269.983924682     A.U. after   13 cycles
 SCF Done:  E(UM062X) =  -269.983936097     A.U. after   13 cycles
 SCF Done:  E(UM062X) =  -269.983939170     A.U. after   12 cycles
 SCF Done:  E(UM062X) =  -269.983939922     A.U. after   11 cycles
 SCF Done:  E(UM062X) =  -269.983940059     A.U. after    8 cycles
 SCF Done:  E(UM062X) =  -269.983940113     A.U. after    8 cycles
 Optimization completed.
    -- Stationary point found.
 Normal termination of Gaussian 16 at Fri Sep  6 12:06:26 2019.

 ----------------------------------------------------------------------
 #P Geom=AllCheck Guess=TCheck SCRF=Check Test GenChk UM062X/CC-pVTZ Fr
 eq
 ----------------------------------------------------------------------

 Structure from the checkpoint file:  "/scratch/harms.n/gauss_scrdir/Gau-6103.chk"
 ------------------------------
 Gaussian input prepared by ASE
 ------------------------------
 Charge =  0 Multiplicity = 2

                         Standard orientation:
 ---------------------------------------------------------------------
 Center     Atomic      Atomic             Coordinates (Angstroms)
 Number     Number       Type             X           Y           Z
 ---------------------------------------------------------------------
      1          8           0        1.970979    0.600679    0.295423
      2          8           0        1.539722   -0.333608   -0.637635
      3          6           0       -1.645167   -0.311206   -0.220533
      4          6           0       -0.583834   -1.167704    0.408219
      5          6           0       -1.420215    1.176215    0.025952
      6          1           0       -2.620150   -0.610800    0.182834
      7          1           0       -1.689260   -0.512531   -1.292597
      8          1           0        0.557235   -0.785106   -0.161584
      9          1           0       -0.364190   -0.949502    1.452290
     10          1           0       -0.625069   -2.231851    0.192070
     11          1           0       -1.391923    1.389601    1.095349
     12          1           0       -2.215755    1.773399   -0.417215
     13          1           0       -0.469679    1.494403   -0.400637
     14          1           0        2.628474    0.111986    0.805365
 ---------------------------------------------------------------------

 SCF Done:  E(UM062X) =  -269.983940113     A.U. after    1 cycles

 The electronic state is 2-A.
 Alpha  occ. eigenvalues --  -19.68808 -19.68637 -10.55255 -10.54147 -10.52088
 Alpha  occ. eigenvalues --   -1.26872  -0.98961  -0.89428  -0.78061  -0.68151
 Alpha  occ. eigenvalues --   -0.61964  -0.58514  -0.53486  -0.52250  -0.51446
 Alpha  occ. eigenvalues --   -0.47602  -0.43115  -0.41491  -0.40641  -0.39148
 Alpha  occ. eigenvalues --   -0.37598  -0.29699
 Alpha virt. eigenvalues --    0.06281   0.07565   0.10736   0.11459   0.12691
 Alpha virt. eigenvalues --    0.13804   0.15519   0.16293   0.18115   0.20399
 Alpha virt. eigenvalues --    0.24805   0.27453   0.29087   0.29597   0.30645

  Beta  occ. eigenvalues --  -19.68656 -19.67661 -10.54748 -10.54169 -10.52081
  Beta  occ. eigenvalues --   -1.25181  -0.96486  -0.88587  -0.76865  -0.67121
  Beta  occ. eigenvalues --   -0.60691  -0.55328  -0.52507  -0.50651  -0.50032
  Beta  occ. eigenvalues --   -0.46923  -0.42060  -0.41009  -0.40370  -0.36315
  Beta  occ. eigenvalues --   -0.35336
  Beta virt. eigenvalues --   -0.07879   0.06369   0.07476   0.10757   0.11561
  Beta virt. eigenvalues --    0.12618   0.13971   0.16014   0.16384   0.18230
  Beta virt. eigenvalues --    0.20758   0.25186   0.27781   0.29220   0.29578

 Mulliken charges and spin densities:
               1          2
     1  O   -0.241591   0.047820
     2  O   -0.216981   0.398571
     3  C   -0.208080  -0.043861
     4  C   -0.390786   0.631737
     5  C   -0.360092   0.011372
     6  H    0.128006   0.039230
     7  H    0.133896   0.008680
     8  H    0.234748  -0.024359
     9  H    0.144419  -0.034453
    10  H    0.139698  -0.029203
    11  H    0.110208  -0.001885
    12  H    0.115311  -0.000699
    13  H    0.143469  -0.000719
    14  H    0.267776  -0.002231
 Sum of Mulliken charges =  -0.00000   1.00000

 Dipole moment (field-independent basis, Debye):
    X=             -0.5661    Y=             -1.1482    Z=              1.5564  Tot=              2.0152
 Quadrupole moment (field-independent basis, Debye-Ang):
   XX=            -29.3655   YY=            -33.2822   ZZ=            -32.2574
   XY=             -0.8788   XZ=              4.2102   YZ=             -0.5189

  Exact polarizability:  74.345   7.921  53.016  -1.043  -0.552  45.791
 Approx polarizability:  74.358   9.262  59.196  -2.044   0.573  57.072

 ******    1 imaginary frequencies (negative Signs) ******

                      1                      2                      3
                      A                      A                      A
 Frequencies --  -1882.3734                63.0591                70.1163
 Red. masses --      1.1004                 4.3495                 2.0458
 Frc consts  --      2.2973                 0.0102                 0.0059
 IR Inten    --   1578.9095                 5.0775                 0.5750

                      4                      5                      6
                      A                      A                      A
 Frequencies --    129.2744               179.7423               263.1230
 Red. masses --      3.0186                 2.9409                 1.1761
 Frc consts  --      0.0297                 0.0560                 0.0480
 IR Inten    --     10.6321                 0.1627                 0.6981

                      7                      8                      9
                      A                      A                      A
 Frequencies --    366.2202               406.8147               557.3269
 Red. masses --      1.6911                 1.2148                 2.4639
 Frc consts  --      0.1336                 0.1185                 0.4509
 IR Inten    --     20.4032                82.8720                 5.6953

                     10                     11                     12
                      A                      A                      A
 Frequencies --    617.7735               754.0803               893.1081
 Red. masses --      1.6818                 1.1225                 2.0509
 Frc consts  --      0.3782                 0.3761                 0.9638
 IR Inten    --      0.6421                12.6651                 5.5135

                     13                     14                     15
                      A                      A                      A
 Frequencies --    918.4807               938.7676              1073.3768
 Red. masses --      1.1689                 1.1677                 2.9760
 Frc consts  --      0.5810                 0.6063                 2.0202
 IR Inten    --      5.5802                 5.6763                29.4405

                     16                     17                     18
                      A                      A                      A
 Frequencies --   1079.8689              1123.9092              1197.5108
 Red. masses --      2.8761                 1.5101                 1.6464
 Frc consts  --      1.9761                 1.1239                 1.3911
 IR Inten    --      8.0208                 8.7105                 0.7894

                     19                     20                     21
                      A                      A                      A
 Frequencies --   1202.6816              1288.6155              1365.5159
 Red. masses --      1.4868                 1.1764                 1.4521
 Frc consts  --      1.2671                 1.1510                 1.5953
 IR Inten    --      3.0946                 3.3492                 4.1018

                     22                     23                     24
                      A                      A                      A
 Frequencies --   1413.3145              1417.9525              1447.6897
 Red. masses --      1.1134                 1.2635                 1.0468
 Frc consts  --      1.3104                 1.4967                 1.2926
 IR Inten    --     53.5561                 1.8058                 1.6334

                     25                     26                     27
                      A                      A                      A
 Frequencies --   1457.6211              1474.7097              1503.2986
 Red. masses --      1.1498                 1.0747                 1.0490
 Frc consts  --      1.4393                 1.3771                 1.3967
 IR Inten    --      2.9904                 2.6418                 7.4707

                     28                     29                     30
                      A                      A                      A
 Frequencies --   1510.1831              3016.9660              3064.8025
 Red. masses --      1.0498                 1.0698                 1.0374
 Frc consts  --      1.4106                 5.7373                 5.7412
 IR Inten    --      6.3290                13.3904                16.4037

                     31                     32                     33
                      A                      A                      A
 Frequencies --   3082.5700              3098.0149              3134.4164
 Red. masses --      1.0856                 1.0569                 1.1010
 Frc consts  --      6.0779                 5.9767                 6.3732
 IR Inten    --     10.0030                15.2511                28.0264

                     34                     35                     36
                      A                      A                      A
 Frequencies --   3147.6144              3184.2274              3811.6062
 Red. masses --      1.1031                 1.1107                 1.0684
 Frc consts  --      6.4392                 6.6350                 9.1452
 IR Inten    --     12.5711                12.6180                65.9388

 - Thermochemistry -
 -------------------
 Temperature   298.150 Kelvin.  Pressure   1.00000 Atm.
 Atom     1 has atomic number  8 and mass  15.99491

 Molecular mass:    77.06025 amu.
 Principal axes and moments of inertia in atomic units:
                           1         2         3
     Eigenvalues --   259.73130 720.14279 861.94125
           X            0.99971  -0.01859   0.01535
           Y            0.01893   0.99957  -0.02242
           Z           -0.01492   0.02270   0.99963
 This molecule is an asymmetric top.
 Rotational symmetry number  1.
 Rotational temperatures (Kelvin)      0.33348     0.12027     0.10049
 Rotational constants (GHZ):           6.94849     2.50609     2.09381
    1 imaginary frequencies ignored.
 Zero-point vibrational energy     300587.8 (Joules/Mol)
                                   71.84220 (Kcal/Mol)
 Warning -- explicit consideration of   9 degrees of freedom as
           vibrations may cause significant error
 Vibrational temperatures:     90.73   100.88   186.00   258.61   378.58
          (Kelvin)            526.91   585.32   801.87   888.84  1084.95
                             1284.98  1321.49  1350.68  1544.35  1553.69
                             1617.05  1722.95  1730.39  1854.03  1964.67
                             2033.44  2040.12  2082.90  2097.19  2121.78
                             2162.91  2172.82  4340.74  4409.57  4435.13
                             4457.35  4509.73  4528.72  4581.39  5484.05

 Zero-point correction=                           0.114488 (Hartree/Particle)
 Thermal correction to Energy=                    0.122062
 Thermal correction to Enthalpy=                  0.123007
 Thermal correction to Gibbs Free Energy=         0.081962
 Sum of electronic and zero-point Energies=           -269.869452
 Sum of electronic and thermal Energies=              -269.861878
 Sum of electronic and thermal Enthalpies=            -269.860934
 Sum of electronic and thermal Free Energies=         -269.901978

                     E (Thermal)             CV                S
                      KCal/Mol        Cal/Mol-Kelvin    Cal/Mol-Kelvin
 Total                   76.595             24.862             86.385
 Electronic               0.000              0.000              1.377
 Translational            0.889              2.981             38.941
 Rotational               0.889              2.981             26.580
 Vibrational             74.818             18.901             19.486
 Vibration     1          0.597              1.972              4.359
 Vibration     2          0.598              1.968              4.150
 Vibration     3          0.612              1.924              2.957
 Vibration     4          0.629              1.867              2.331
 Vibration     5          0.670              1.740              1.641
 Vibration     6          0.739              1.542              1.096
 Vibration     7          0.772              1.455              0.938
 Vibration     8          0.913              1.124              0.529
 Vibration     9          0.978              0.994              0.420

                           ! Non-Optimized Parameters !
 Normal termination of Gaussian 16 at Fri Sep  6 13:51:27 2019.
