 Gaussian 16, Revision A.03,
 Gaussian 16:  EM64L-G16RevA.03 25-Dec-2016

 ----------------------------------------------------------------------
 #p m062x/cc-pVTZ opt=(ts,calcfc,noeigentest,maxcycles=900) freq scf=(m
 axcycle=900) IOP(7/33=1,2/16=3)
 ----------------------------------------------------------------------

 ------------------------------
 Gaussian input prepared by ASE
 ------------------------------
 Symbolic Z-matrix:
 Charge =  0 Multiplicity = 2

 SCF Done:  E(UM062X) =  -269.977535794     A.U. after   18 cycles

  Exact polarizability:   0.000   0.000   0.000   0.000   0.000   0.000
 Approx polarizability:  78.918   1.601  58.160  -2.102  -0.180  53.039

 SCF Done:  E(UM062X) =  -269.981171720     A.U. after   16 cycles
 SCF Done:  E(UM062X) =  -269.982557978     A.U. after   15 cycles
 SCF Done:  E(UM062X) =  -269.982789323     A.U. after   18 cycles
 SCF Done:  E(UM062X) =  -269.982817307     A.U. after   11 cycles
 SCF Done:  E(UM062X) =  -269.982819515     A.U. after   10 cycles
 SCF Done:  E(UM062X) =  -269.982927529     A.U. after   14 cycles
 SCF Done:  E(UM062X) =  -269.982914051     A.U. after   13 cycles
 SCF Done:  E(UM062X) =  -269.982912451     A.U. after    9 cycles
 SCF Done:  E(UM062X) =  -269.982915459     A.U. after   10 cycles
 SCF Done:  E(UM062X) =  -269.983332622     A.U. after   15 cycles
 SCF Done:  E(UM062X) =  -269.983392583     A.U. after   14 cycles
 SCF Done:  E(UM062X) =  -269.983389965     A.U. after   14 cycles
 SCF Done:  E(UM062X) =  -269.983399832     A.U. after   13 cycles
 SCF Done:  E(UM062X) =  -269.983281952     A.U. after   15 cycles
 SCF Done:  E(UM062X) =  -269.983373570     A.U. after   14 cycles
 SCF Done:  E(UM062X) =  -269.983398169     A.U. after   13 cycles
 SCF Done:  E(UM062X) =  -269.983400450     A.U. after   11 cycles
 SCF Done:  E(UM062X) =  -269.983400492     A.U. after   10 cycles
 Optimization completed.
    -- Stationary point found.

 The electronic state is 2-A.
 Alpha  occ. eigenvalues --  -19.68918 -19.68486 -10.55272 -10.54540 -10.53534
 Alpha  occ. eigenvalues --   -1.26915  -0.98975  -0.89939  -0.78703  -0.68294
 Alpha  occ. eigenvalues --   -0.62290  -0.58656  -0.54983  -0.52311  -0.50325
 Alpha  occ. eigenvalues --   -0.46941  -0.45932  -0.42037  -0.40796  -0.39796
 Alpha  occ. eigenvalues --   -0.37513  -0.29467
 Alpha virt. eigenvalues --    0.05572   0.07442   0.10245   0.10876   0.12851
 Alpha virt. eigenvalues --    0.14076   0.14984   0.16269   0.17121   0.19322
 Alpha virt. eigenvalues --    0.24809   0.25849   0.28194   0.28733   0.30384

  Beta  occ. eigenvalues --  -19.68748 -19.67535 -10.54754 -10.54563 -10.53464
  Beta  occ. eigenvalues --   -1.25231  -0.96516  -0.89107  -0.77290  -0.67528
  Beta  occ. eigenvalues --   -0.60816  -0.55399  -0.54322  -0.50530  -0.49600
  Beta  occ. eigenvalues --   -0.46404  -0.44244  -0.41531  -0.40402  -0.36484
  Beta  occ. eigenvalues --   -0.35471
  Beta virt. eigenvalues --   -0.07821   0.05683   0.07457   0.10303   0.10915
  Beta virt. eigenvalues --    0.13041   0.14183   0.14982   0.16619   0.17342
  Beta virt. eigenvalues --    0.19580   0.25122   0.26367   0.28242   0.28891

 Mulliken charges and spin densities:
               1          2
     1  O   -0.238650   0.052728
     2  O   -0.214591   0.388639
     3  C   -0.258819  -0.034744
     4  C   -0.364090   0.628891
     5  C   -0.336488   0.032599
     6  H    0.145243   0.005122
     7  H    0.129895   0.005045
     8  H    0.245219  -0.021309
     9  H    0.136816  -0.030290
    10  H    0.141367  -0.030990
    11  H    0.115547  -0.001715
    12  H    0.116531   0.010359
    13  H    0.112871  -0.001480
    14  H    0.269149  -0.002854
 Sum of Mulliken charges =  -0.00000   1.00000

 Dipole moment (field-independent basis, Debye):
    X=             -2.1224    Y=              0.8403    Z=              1.0948  Tot=              2.5317
 Quadrupole moment (field-independent basis, Debye-Ang):
   XX=            -37.5430   YY=            -30.6214   ZZ=            -32.0779
   XY=              2.5977   XZ=              2.3639   YZ=              1.9703

 Normal termination of Gaussian 16 at Fri Sep  6 18:21:22 2019.

 ----------------------------------------------------------------------
 #P Geom=AllCheck Guess=TCheck SCRF=Check Test GenChk UM062X/CC-pVTZ Fr
 eq
 ----------------------------------------------------------------------

 Structure from the checkpoint file:  "/scratch/harms.n/gauss_scrdir/Gau-6659.chk"
 ------------------------------
 Gaussian input prepared by ASE
 ------------------------------
 Charge =  0 Multiplicity = 2

                         Standard orientation:
 ---------------------------------------------------------------------
 Center     Atomic      Atomic             Coordinates (Angstroms)
 Number     Number       Type             X           Y           Z
 ---------------------------------------------------------------------
      1          8           0        2.069442    0.793704   -0.244065
      2          8           0        2.016504   -0.526845    0.181722
      3          6           0       -1.041337    0.336792    0.158709
      4          6           0       -0.427550   -1.003651   -0.121328
      5          6           0       -2.561918    0.315093   -0.034722
      6          1           0       -0.600720    1.083987   -0.503287
      7          1           0       -0.812094    0.639581    1.182858
      8          1           0        0.895408   -0.830542    0.030111
      9          1           0       -0.646231   -1.787384    0.600371
     10          1           0       -0.493843   -1.345613   -1.151529
     11          1           0       -2.815508    0.038935   -1.058142
     12          1           0       -2.993450    1.294484    0.169920
     13          1           0       -3.027769   -0.409261    0.633342
     14          1           0        1.991480    1.291536    0.579151
 ---------------------------------------------------------------------

 SCF Done:  E(UM062X) =  -269.983400492     A.U. after    1 cycles
