 Gaussian 16, Revision A.03,
 Gaussian 16:  EM64L-G16RevA.03 25-Dec-2016

 ----------------------------------------------------------------------
 #p m062x/cc-pVTZ opt=(ts,calcfc,noeigentest,maxcycles=900) freq scf=(m
 axcycle=900) IOP(7/33=1,2/16=3)
 ----------------------------------------------------------------------

 ------------------------------
 Gaussian input prepared by ASE
 ------------------------------
 Symbolic Z-matrix:
 Charge =  0 Multiplicity = 2

 SCF Done:  E(UM062X) =  -269.977547730     A.U. after   18 cycles

  Exact polarizability:   0.000   0.000   0.000   0.000   0.000   0.000
 Approx polarizability:  78.728   1.809  58.313  -2.135  -0.064  53.070

 SCF Done:  E(UM062X) =  -269.980913205     A.U. after   18 cycles
 SCF Done:  E(UM062X) =  -269.981923526     A.U. after   16 cycles
 SCF Done:  E(UM062X) =  -269.982185738     A.U. after   15 cycles
 SCF Done:  E(UM062X) =  -269.982279243     A.U. after   15 cycles
 SCF Done:  E(UM062X) =  -269.982666644     A.U. after   18 cycles
 SCF Done:  E(UM062X) =  -269.982820720     A.U. after   20 cycles
 SCF Done:  E(UM062X) =  -269.982959481     A.U. after   15 cycles
 SCF Done:  E(UM062X) =  -269.982829290     A.U. after   15 cycles
 SCF Done:  E(UM062X) =  -269.982995859     A.U. after   17 cycles
 SCF Done:  E(UM062X) =  -269.983299303     A.U. after   14 cycles
 SCF Done:  E(UM062X) =  -269.983334036     A.U. after   14 cycles
 SCF Done:  E(UM062X) =  -269.982856678     A.U. after   15 cycles
 SCF Done:  E(UM062X) =  -269.983145229     A.U. after   15 cycles
 SCF Done:  E(UM062X) =  -269.983342632     A.U. after   14 cycles
 SCF Done:  E(UM062X) =  -269.983393452     A.U. after   14 cycles
 SCF Done:  E(UM062X) =  -269.983400070     A.U. after   13 cycles
 SCF Done:  E(UM062X) =  -269.983400493     A.U. after   12 cycles
 SCF Done:  E(UM062X) =  -269.983400493     A.U. after   10 cycles
 Optimization completed.
    -- Stationary point found.

 The electronic state is 2-A.
 Alpha  occ. eigenvalues --  -19.68918 -19.68486 -10.55272 -10.54540 -10.53534
 Alpha  occ. eigenvalues --   -1.26915  -0.98975  -0.89939  -0.78703  -0.68294
 Alpha  occ. eigenvalues --   -0.62289  -0.58657  -0.54983  -0.52311  -0.50325
 Alpha  occ. eigenvalues --   -0.46941  -0.45932  -0.42037  -0.40796  -0.39796
 Alpha  occ. eigenvalues --   -0.37512  -0.29467
 Alpha virt. eigenvalues --    0.05572   0.07442   0.10245   0.10876   0.12851
 Alpha virt. eigenvalues --    0.14076   0.14984   0.16269   0.17121   0.19322
 Alpha virt. eigenvalues --    0.24809   0.25849   0.28194   0.28733   0.30384

  Beta  occ. eigenvalues --  -19.68748 -19.67535 -10.54754 -10.54563 -10.53464
  Beta  occ. eigenvalues --   -1.25231  -0.96515  -0.89107  -0.77290  -0.67528
  Beta  occ. eigenvalues --   -0.60815  -0.55399  -0.54322  -0.50530  -0.49600
  Beta  occ. eigenvalues --   -0.46404  -0.44244  -0.41531  -0.40401  -0.36484
  Beta  occ. eigenvalues --   -0.35470
  Beta virt. eigenvalues --   -0.07821   0.05684   0.07457   0.10303   0.10915
  Beta virt. eigenvalues --    0.13041   0.14183   0.14983   0.16619   0.17342
  Beta virt. eigenvalues --    0.19580   0.25122   0.26367   0.28242   0.28892

 Mulliken charges and spin densities:
               1          2
     1  O   -0.238654   0.052725
     2  O   -0.214592   0.388638
     3  C   -0.258811  -0.034742
     4  C   -0.364091   0.628889
     5  C   -0.336488   0.032601
     6  H    0.145242   0.005123
     7  H    0.129895   0.005044
     8  H    0.245220  -0.021308
     9  H    0.136816  -0.030290
    10  H    0.141364  -0.030989
    11  H    0.115547  -0.001715
    12  H    0.116531   0.010359
    13  H    0.112870  -0.001480
    14  H    0.269151  -0.002854
 Sum of Mulliken charges =  -0.00000   1.00000

 Dipole moment (field-independent basis, Debye):
    X=             -2.1222    Y=             -0.8403    Z=             -1.0950  Tot=              2.5316
 Quadrupole moment (field-independent basis, Debye-Ang):
   XX=            -37.5420   YY=            -30.6216   ZZ=            -32.0778
   XY=             -2.5980   XZ=             -2.3644   YZ=              1.9704

 Normal termination of Gaussian 16 at Fri Sep  6 11:28:55 2019.

 ----------------------------------------------------------------------
 #P Geom=AllCheck Guess=TCheck SCRF=Check Test GenChk UM062X/CC-pVTZ Fr
 eq
 ----------------------------------------------------------------------

 Structure from the checkpoint file:  "/scratch/harms.n/gauss_scrdir/Gau-4919.chk"
 ------------------------------
 Gaussian input prepared by ASE
 ------------------------------
 Charge =  0 Multiplicity = 2

                         Standard orientation:
 ---------------------------------------------------------------------
 Center     Atomic      Atomic             Coordinates (Angstroms)
 Number     Number       Type             X           Y           Z
 ---------------------------------------------------------------------
      1          8           0        2.069414   -0.793717    0.244052
      2          8           0        2.016523    0.526856   -0.181666
      3          6           0       -1.041346   -0.336795   -0.158746
      4          6           0       -0.427544    1.003643    0.121285
      5          6           0       -2.561920   -0.315081    0.034759
      6          1           0       -0.600712   -1.084016    0.503214
      7          1           0       -0.812169   -0.639583   -1.182908
      8          1           0        0.895414    0.830518   -0.030099
      9          1           0       -0.646220    1.787386   -0.600398
     10          1           0       -0.493854    1.345590    1.151491
     11          1           0       -2.815459   -0.038922    1.058191
     12          1           0       -2.993467   -1.294470   -0.169862
     13          1           0       -3.027788    0.409277   -0.633288
     14          1           0        1.991618   -1.291495   -0.579212
 ---------------------------------------------------------------------

 SCF Done:  E(UM062X) =  -269.983400493     A.U. after    1 cycles
