 Gaussian 16, Revision A.03,
 Gaussian 16:  EM64L-G16RevA.03 25-Dec-2016

 ----------------------------------------------------------------------
 #p m062x/cc-pVTZ opt=(ts,calcfc,noeigentest,maxcycles=900) freq scf=(m
 axcycle=900) IOP(7/33=1,2/16=3)
 ----------------------------------------------------------------------

 ------------------------------
 Gaussian input prepared by ASE
 ------------------------------
 Symbolic Z-matrix:
 Charge =  0 Multiplicity = 2

 SCF Done:  E(UM062X) =  -269.978882931     A.U. after   18 cycles
 SCF Done:  E(UM062X) =  -269.982953487     A.U. after   17 cycles
 SCF Done:  E(UM062X) =  -269.983578085     A.U. after   15 cycles
 SCF Done:  E(UM062X) =  -269.983713241     A.U. after   13 cycles
 SCF Done:  E(UM062X) =  -269.983751781     A.U. after   13 cycles
 SCF Done:  E(UM062X) =  -269.983762897     A.U. after   13 cycles
 SCF Done:  E(UM062X) =  -269.983750548     A.U. after   14 cycles
 SCF Done:  E(UM062X) =  -269.983773353     A.U. after   13 cycles
 SCF Done:  E(UM062X) =  -269.983775543     A.U. after   12 cycles
 SCF Done:  E(UM062X) =  -269.983781038     A.U. after   12 cycles
 SCF Done:  E(UM062X) =  -269.983785620     A.U. after   12 cycles
 SCF Done:  E(UM062X) =  -269.983785962     A.U. after   10 cycles
 SCF Done:  E(UM062X) =  -269.983786064     A.U. after    9 cycles
 SCF Done:  E(UM062X) =  -269.983786140     A.U. after   10 cycles
 SCF Done:  E(UM062X) =  -269.983786147     A.U. after   10 cycles
 Optimization completed.
    -- Stationary point found.
 Normal termination of Gaussian 16 at Fri Sep  6 00:57:17 2019.

 ----------------------------------------------------------------------
 #P Geom=AllCheck Guess=TCheck SCRF=Check Test GenChk UM062X/CC-pVTZ Fr
 eq
 ----------------------------------------------------------------------

 Structure from the checkpoint file:  "/scratch/harms.n/gauss_scrdir/Gau-31296.chk"
 ------------------------------
 Gaussian input prepared by ASE
 ------------------------------
 Charge =  0 Multiplicity = 2

                         Standard orientation:
 ---------------------------------------------------------------------
 Center     Atomic      Atomic             Coordinates (Angstroms)
 Number     Number       Type             X           Y           Z
 ---------------------------------------------------------------------
      1          8           0        2.002243    0.421821    0.419190
      2          8           0        1.536721   -0.327482   -0.653123
      3          6           0       -1.670090   -0.281397   -0.152574
      4          6           0       -0.588245   -1.192230    0.353296
      5          6           0       -1.310356    1.194917   -0.014569
      6          1           0       -2.589037   -0.486345    0.409397
      7          1           0       -1.895261   -0.512576   -1.194744
      8          1           0        0.547779   -0.818861   -0.243262
      9          1           0       -0.281134   -1.026592    1.384736
     10          1           0       -0.677379   -2.243945    0.097114
     11          1           0       -1.020844    1.428740    1.011438
     12          1           0       -2.148365    1.835888   -0.283636
     13          1           0       -0.476182    1.440593   -0.673214
     14          1           0        1.640854    1.300649    0.246719
 ---------------------------------------------------------------------

 SCF Done:  E(UM062X) =  -269.983786147     A.U. after    1 cycles

 The electronic state is 2-A.
 Alpha  occ. eigenvalues --  -19.68772 -19.68645 -10.55383 -10.54856 -10.53646
 Alpha  occ. eigenvalues --   -1.26868  -0.98909  -0.90151  -0.78872  -0.69032
 Alpha  occ. eigenvalues --   -0.62038  -0.58108  -0.54329  -0.53063  -0.51600
 Alpha  occ. eigenvalues --   -0.48165  -0.44299  -0.42403  -0.41370  -0.39392
 Alpha  occ. eigenvalues --   -0.37600  -0.29758
 Alpha virt. eigenvalues --    0.05731   0.07300   0.10648   0.11159   0.12005
 Alpha virt. eigenvalues --    0.13455   0.14559   0.16376   0.17481   0.20910
 Alpha virt. eigenvalues --    0.23428   0.27259   0.27979   0.29025   0.30798

  Beta  occ. eigenvalues --  -19.68621 -19.67675 -10.54898 -10.54853 -10.53634
  Beta  occ. eigenvalues --   -1.25179  -0.96453  -0.89376  -0.77672  -0.67927
  Beta  occ. eigenvalues --   -0.60737  -0.54744  -0.53511  -0.52238  -0.49708
  Beta  occ. eigenvalues --   -0.47436  -0.43361  -0.41856  -0.41063  -0.36253
  Beta  occ. eigenvalues --   -0.35522
  Beta virt. eigenvalues --   -0.07897   0.05842   0.07219   0.10704   0.11155
  Beta virt. eigenvalues --    0.12269   0.13470   0.14641   0.16525   0.18013
  Beta virt. eigenvalues --    0.21113   0.23897   0.27534   0.28183   0.29092

 Mulliken charges and spin densities:
               1          2
     1  O   -0.242752   0.047749
     2  O   -0.210763   0.397584
     3  C   -0.189724  -0.045181
     4  C   -0.396558   0.635939
     5  C   -0.405321   0.015589
     6  H    0.130207   0.038341
     7  H    0.131974   0.005986
     8  H    0.235312  -0.026237
     9  H    0.158893  -0.033132
    10  H    0.141584  -0.029566
    11  H    0.129723  -0.002968
    12  H    0.129461  -0.000602
    13  H    0.119214  -0.000743
    14  H    0.268746  -0.002757
 Sum of Mulliken charges =  -0.00000   1.00000

 Dipole moment (field-independent basis, Debye):
    X=             -2.4536    Y=              0.9503    Z=              0.4206  Tot=              2.6646
 Quadrupole moment (field-independent basis, Debye-Ang):
   XX=            -36.9046   YY=            -29.4099   ZZ=            -33.6030
   XY=              2.7111   XZ=              0.4804   YZ=              0.0470

  Exact polarizability:  71.383   8.322  54.877  -2.014  -0.248  44.708
 Approx polarizability:  73.896   8.908  60.384  -2.499   1.281  56.656

 ******    1 imaginary frequencies (negative Signs) ******

                      1                      2                      3
                      A                      A                      A
 Frequencies --  -1890.5257                66.8993               105.8003
 Red. masses --      1.0996                 2.8975                 3.0164
 Frc consts  --      2.3155                 0.0076                 0.0199
 IR Inten    --   1452.6495                 1.7692                 4.5564

                      4                      5                      6
                      A                      A                      A
 Frequencies --    140.9011               186.0922               275.3042
 Red. masses --      2.7671                 2.9446                 1.1084
 Frc consts  --      0.0324                 0.0601                 0.0495
 IR Inten    --      4.5583                 0.7003                 0.1343

                      7                      8                      9
                      A                      A                      A
 Frequencies --    367.8349               407.3060               574.3631
 Red. masses --      1.7342                 1.2698                 2.2424
 Frc consts  --      0.1382                 0.1241                 0.4358
 IR Inten    --     24.7984               117.9248                 0.1935

                     10                     11                     12
                      A                      A                      A
 Frequencies --    607.9714               761.6884               890.6339
 Red. masses --      1.7057                 1.1217                 1.8259
 Frc consts  --      0.3715                 0.3834                 0.8533
 IR Inten    --      0.4712                 6.7742                 3.0408

                     13                     14                     15
                      A                      A                      A
 Frequencies --    913.4936               935.5003              1072.8096
 Red. masses --      1.2958                 1.1503                 2.2838
 Frc consts  --      0.6371                 0.5931                 1.5487
 IR Inten    --      7.2489                 4.5548                38.8532

                     16                     17                     18
                      A                      A                      A
 Frequencies --   1077.9736              1118.0203              1200.5060
 Red. masses --      3.7975                 1.6295                 1.6929
 Frc consts  --      2.5999                 1.2001                 1.4375
 IR Inten    --      8.2477                 8.2399                 1.6183

                     19                     20                     21
                      A                      A                      A
 Frequencies --   1210.8036              1290.9688              1367.8170
 Red. masses --      1.3940                 1.1792                 1.4254
 Frc consts  --      1.2041                 1.1579                 1.5712
 IR Inten    --      6.7116                 2.5833                 2.5467

                     22                     23                     24
                      A                      A                      A
 Frequencies --   1406.1682              1419.3513              1455.3789
 Red. masses --      1.2578                 1.1233                 1.0523
 Frc consts  --      1.4653                 1.3333                 1.3133
 IR Inten    --      4.3636                52.0146                 3.9152

                     25                     26                     27
                      A                      A                      A
 Frequencies --   1460.0364              1479.5221              1501.4011
 Red. masses --      1.1368                 1.0777                 1.0465
 Frc consts  --      1.4278                 1.3899                 1.3900
 IR Inten    --      2.7539                 2.8637                 7.7638

                     28                     29                     30
                      A                      A                      A
 Frequencies --   1516.7446              3020.8057              3056.7221
 Red. masses --      1.0534                 1.0699                 1.0363
 Frc consts  --      1.4278                 5.7522                 5.7051
 IR Inten    --      4.4840                10.9301                16.3284

                     31                     32                     33
                      A                      A                      A
 Frequencies --   3089.6019              3101.5601              3126.0359
 Red. masses --      1.0862                 1.0587                 1.1024
 Frc consts  --      6.1089                 6.0005                 6.3473
 IR Inten    --      7.0783                11.3652                24.4052

                     34                     35                     36
                      A                      A                      A
 Frequencies --   3139.8325              3189.3510              3798.9568
 Red. masses --      1.1009                 1.1106                 1.0682
 Frc consts  --      6.3948                 6.6560                 9.0833
 IR Inten    --     23.1547                 9.9841                38.2771

 - Thermochemistry -
 -------------------
 Temperature   298.150 Kelvin.  Pressure   1.00000 Atm.
 Atom     1 has atomic number  8 and mass  15.99491

 Molecular mass:    77.06025 amu.
 Principal axes and moments of inertia in atomic units:
                           1         2         3
     Eigenvalues --   260.32192 699.98225 841.54980
           X            0.99998  -0.00345   0.00524
           Y            0.00354   0.99982  -0.01860
           Z           -0.00517   0.01862   0.99981
 This molecule is an asymmetric top.
 Rotational symmetry number  1.
 Rotational temperatures (Kelvin)      0.33272     0.12374     0.10292
 Rotational constants (GHZ):           6.93273     2.57827     2.14454
    1 imaginary frequencies ignored.
 Zero-point vibrational energy     301065.1 (Joules/Mol)
                                   71.95629 (Kcal/Mol)
 Warning -- explicit consideration of   9 degrees of freedom as
           vibrations may cause significant error
 Vibrational temperatures:     96.25   152.22   202.73   267.75   396.10
          (Kelvin)            529.23   586.02   826.38   874.74  1095.90
                             1281.42  1314.31  1345.98  1543.53  1550.96
                             1608.58  1727.26  1742.08  1857.42  1967.98
                             2023.16  2042.13  2093.97  2100.67  2128.70
                             2160.18  2182.26  4346.27  4397.94  4445.25
                             4462.45  4497.67  4517.52  4588.76  5465.85

 Zero-point correction=                           0.114670 (Hartree/Particle)
 Thermal correction to Energy=                    0.122111
 Thermal correction to Enthalpy=                  0.123055
 Thermal correction to Gibbs Free Energy=         0.082632
 Sum of electronic and zero-point Energies=           -269.869117
 Sum of electronic and thermal Energies=              -269.861675
 Sum of electronic and thermal Enthalpies=            -269.860731
 Sum of electronic and thermal Free Energies=         -269.901154

                     E (Thermal)             CV                S
                      KCal/Mol        Cal/Mol-Kelvin    Cal/Mol-Kelvin
 Total                   76.626             24.769             85.077
 Electronic               0.000              0.000              1.377
 Translational            0.889              2.981             38.941
 Rotational               0.889              2.981             26.531
 Vibrational             74.848             18.808             18.227
 Vibration     1          0.598              1.970              4.243
 Vibration     2          0.605              1.945              3.345
 Vibration     3          0.615              1.912              2.792
 Vibration     4          0.632              1.859              2.266
 Vibration     5          0.677              1.719              1.563
 Vibration     6          0.740              1.538              1.089
 Vibration     7          0.772              1.454              0.936
 Vibration     8          0.931              1.087              0.496
 Vibration     9          0.967              1.015              0.436

 Optimization completed.
    -- Stationary point found.
 Normal termination of Gaussian 16 at Fri Sep  6 02:17:09 2019.
