 Gaussian 16, Revision A.03,
 Gaussian 16:  EM64L-G16RevA.03 25-Dec-2016

 ----------------------------------------------------------------------
 #p m062x/cc-pVTZ opt=(ts,calcfc,noeigentest,maxcycles=900) freq scf=(m
 axcycle=900) IOP(7/33=1,2/16=3)
 ----------------------------------------------------------------------

 ------------------------------
 Gaussian input prepared by ASE
 ------------------------------
 Symbolic Z-matrix:
 Charge =  0 Multiplicity = 2

 SCF Done:  E(UM062X) =  -269.979676481     A.U. after   18 cycles
 SCF Done:  E(UM062X) =  -269.983518786     A.U. after   16 cycles
 SCF Done:  E(UM062X) =  -269.984342658     A.U. after   15 cycles
 SCF Done:  E(UM062X) =  -269.983495278     A.U. after   17 cycles
 SCF Done:  E(UM062X) =  -269.984367507     A.U. after   15 cycles
 SCF Done:  E(UM062X) =  -269.984404957     A.U. after   15 cycles
 SCF Done:  E(UM062X) =  -269.984555559     A.U. after   15 cycles
 SCF Done:  E(UM062X) =  -269.984662399     A.U. after   13 cycles
 SCF Done:  E(UM062X) =  -269.984816618     A.U. after   14 cycles
 SCF Done:  E(UM062X) =  -269.984921427     A.U. after   13 cycles
 SCF Done:  E(UM062X) =  -269.984650172     A.U. after   15 cycles
 SCF Done:  E(UM062X) =  -269.984287847     A.U. after   15 cycles
 SCF Done:  E(UM062X) =  -269.984735979     A.U. after   15 cycles
 SCF Done:  E(UM062X) =  -269.984834939     A.U. after   14 cycles
 SCF Done:  E(UM062X) =  -269.984909286     A.U. after   13 cycles
 SCF Done:  E(UM062X) =  -269.984922916     A.U. after   13 cycles
 SCF Done:  E(UM062X) =  -269.984936164     A.U. after   13 cycles
 SCF Done:  E(UM062X) =  -269.984936975     A.U. after   10 cycles
 SCF Done:  E(UM062X) =  -269.984937046     A.U. after   10 cycles
 Optimization completed.
    -- Stationary point found.
 Normal termination of Gaussian 16 at Fri Sep  6 06:10:31 2019.

 ----------------------------------------------------------------------
 #P Geom=AllCheck Guess=TCheck SCRF=Check Test GenChk UM062X/CC-pVTZ Fr
 eq
 ----------------------------------------------------------------------

 Structure from the checkpoint file:  "/scratch/harms.n/gauss_scrdir/Gau-6567.chk"
 ------------------------------
 Gaussian input prepared by ASE
 ------------------------------
 Charge =  0 Multiplicity = 2

                         Standard orientation:
 ---------------------------------------------------------------------
 Center     Atomic      Atomic             Coordinates (Angstroms)
 Number     Number       Type             X           Y           Z
 ---------------------------------------------------------------------
      1          8           0       -1.780547   -0.554097    0.525842
      2          8           0       -1.626544    0.245696   -0.598548
      3          6           0        1.269677    0.140163    0.583109
      4          6           0        0.577841    1.311106   -0.049093
      5          6           0        1.539424   -0.981772   -0.413333
      6          1           0        0.665166   -0.226921    1.415474
      7          1           0        2.215653    0.475401    1.024372
      8          1           0       -0.623799    0.827182   -0.397977
      9          1           0        0.306965    2.129696    0.611491
     10          1           0        0.981403    1.642028   -1.003806
     11          1           0        0.613342   -1.302292   -0.894417
     12          1           0        1.995804   -1.845233    0.068174
     13          1           0        2.209346   -0.643070   -1.204395
     14          1           0       -1.428793   -1.406565    0.238634
 ---------------------------------------------------------------------

 SCF Done:  E(UM062X) =  -269.984937046     A.U. after    1 cycles

 The electronic state is 2-A.
 Alpha  occ. eigenvalues --  -19.69111 -19.68665 -10.55324 -10.54647 -10.53517
 Alpha  occ. eigenvalues --   -1.27073  -0.99086  -0.90138  -0.78747  -0.68659
 Alpha  occ. eigenvalues --   -0.62316  -0.58914  -0.53517  -0.53289  -0.51457
 Alpha  occ. eigenvalues --   -0.48431  -0.43726  -0.42250  -0.41404  -0.40077
 Alpha  occ. eigenvalues --   -0.37667  -0.29503
 Alpha virt. eigenvalues --    0.05126   0.08222   0.10262   0.11169   0.12282
 Alpha virt. eigenvalues --    0.14144   0.15092   0.16260   0.18277   0.20097
 Alpha virt. eigenvalues --    0.24872   0.26825   0.28099   0.28780   0.29215

  Beta  occ. eigenvalues --  -19.68935 -19.67707 -10.54814 -10.54667 -10.53511
  Beta  occ. eigenvalues --   -1.25374  -0.96610  -0.89363  -0.77570  -0.67605
  Beta  occ. eigenvalues --   -0.60925  -0.55885  -0.52644  -0.52490  -0.49141
  Beta  occ. eigenvalues --   -0.47879  -0.42761  -0.41751  -0.41031  -0.36622
  Beta  occ. eigenvalues --   -0.35642
  Beta virt. eigenvalues --   -0.07798   0.05182   0.08103   0.10304   0.11140
  Beta virt. eigenvalues --    0.12364   0.14423   0.15397   0.16323   0.18451
  Beta virt. eigenvalues --    0.20124   0.25351   0.27283   0.28265   0.28835

 Mulliken charges and spin densities:
               1          2
     1  O   -0.238574   0.053944
     2  O   -0.212195   0.390522
     3  C   -0.277186  -0.039683
     4  C   -0.363285   0.618691
     5  C   -0.360482   0.001719
     6  H    0.159131   0.009683
     7  H    0.142814   0.043298
     8  H    0.235848  -0.021442
     9  H    0.147250  -0.028442
    10  H    0.138628  -0.027793
    11  H    0.112274   0.002528
    12  H    0.123665  -0.000084
    13  H    0.121925   0.000251
    14  H    0.270186  -0.003192
 Sum of Mulliken charges =  -0.00000   1.00000

 Dipole moment (field-independent basis, Debye):
    X=              2.3726    Y=             -0.8103    Z=              0.1751  Tot=              2.5133
 Quadrupole moment (field-independent basis, Debye-Ang):
   XX=            -37.0904   YY=            -28.9852   ZZ=            -33.7675
   XY=              2.1883   XZ=             -0.0643   YZ=             -0.1421

  Exact polarizability:  67.488   8.010  55.948   1.166  -1.122  46.005
 Approx polarizability:  71.482   9.069  62.345   1.669  -3.261  57.044

 ******    1 imaginary frequencies (negative Signs) ******

                      1                      2                      3
                      A                      A                      A
 Frequencies --  -1861.7536                74.9352               106.4529
 Red. masses --      1.1003                 4.0687                 3.5668
 Frc consts  --      2.2470                 0.0135                 0.0238
 IR Inten    --   1241.0072                 5.3010                 3.7987

                      4                      5                      6
                      A                      A                      A
 Frequencies --    154.3713               219.9471               285.1569
 Red. masses --      1.7926                 1.7642                 1.6305
 Frc consts  --      0.0252                 0.0503                 0.0781
 IR Inten    --      0.2270                 0.5088                 0.4108

                      7                      8                      9
                      A                      A                      A
 Frequencies --    367.7177               404.1212               511.4145
 Red. masses --      1.2782                 1.7235                 1.4215
 Frc consts  --      0.1018                 0.1658                 0.2191
 IR Inten    --    100.9900                37.2353                18.0388

                     10                     11                     12
                      A                      A                      A
 Frequencies --    583.2460               757.3439               894.4459
 Red. masses --      2.7031                 1.1383                 2.1987
 Frc consts  --      0.5418                 0.3847                 1.0364
 IR Inten    --      1.2162                 7.3908                 3.2979

                     13                     14                     15
                      A                      A                      A
 Frequencies --    928.6208               947.9447              1078.7414
 Red. masses --      1.1761                 1.1687                 7.0423
 Frc consts  --      0.5975                 0.6188                 4.8283
 IR Inten    --      4.5121                 5.6122                20.5222

                     16                     17                     18
                      A                      A                      A
 Frequencies --   1085.2678              1116.4393              1188.7500
 Red. masses --      1.9627                 1.3819                 1.5757
 Frc consts  --      1.3620                 1.0148                 1.3119
 IR Inten    --     13.3584                22.2730                 0.8807

                     19                     20                     21
                      A                      A                      A
 Frequencies --   1198.9789              1287.6621              1369.8923
 Red. masses --      1.5759                 1.1833                 1.4217
 Frc consts  --      1.3347                 1.1560                 1.5719
 IR Inten    --      4.7322                 2.6576                 1.9138

                     22                     23                     24
                      A                      A                      A
 Frequencies --   1409.0357              1420.0770              1454.3609
 Red. masses --      1.1865                 1.1980                 1.0728
 Frc consts  --      1.3879                 1.4234                 1.3370
 IR Inten    --     33.5554                18.7902                 1.7183

                     25                     26                     27
                      A                      A                      A
 Frequencies --   1468.0009              1473.7469              1500.2286
 Red. masses --      1.1208                 1.0797                 1.0383
 Frc consts  --      1.4231                 1.3816                 1.3768
 IR Inten    --      8.5056                 4.1576                 7.1115

                     28                     29                     30
                      A                      A                      A
 Frequencies --   1512.2956              3022.8863              3058.8866
 Red. masses --      1.0547                 1.0697                 1.0363
 Frc consts  --      1.4212                 5.7593                 5.7129
 IR Inten    --      5.9748                10.8512                18.8158

                     31                     32                     33
                      A                      A                      A
 Frequencies --   3079.5701              3104.7181              3122.9227
 Red. masses --      1.0886                 1.0552                 1.1010
 Frc consts  --      6.0828                 5.9928                 6.3264
 IR Inten    --      2.8345                11.1725                23.1603

                     34                     35                     36
                      A                      A                      A
 Frequencies --   3140.8583              3191.6690              3799.0962
 Red. masses --      1.1021                 1.1115                 1.0683
 Frc consts  --      6.4057                 6.6709                 9.0848
 IR Inten    --     20.8967                10.1599                40.7884

 - Thermochemistry -
 -------------------
 Temperature   298.150 Kelvin.  Pressure   1.00000 Atm.
 Atom     1 has atomic number  8 and mass  15.99491

 Molecular mass:    77.06025 amu.
 Principal axes and moments of inertia in atomic units:
                           1         2         3
     Eigenvalues --   276.28117 663.08131 773.40302
           X            0.99992  -0.01140  -0.00573
           Y            0.01158   0.99944   0.03129
           Z            0.00537  -0.03135   0.99949
 This molecule is an asymmetric top.
 Rotational symmetry number  1.
 Rotational temperatures (Kelvin)      0.31350     0.13062     0.11199
 Rotational constants (GHZ):           6.53226     2.72175     2.33351
    1 imaginary frequencies ignored.
 Zero-point vibrational energy     300979.3 (Joules/Mol)
                                   71.93577 (Kcal/Mol)
 Warning -- explicit consideration of   9 degrees of freedom as
           vibrations may cause significant error
 Vibrational temperatures:    107.82   153.16   222.11   316.45   410.28
          (Kelvin)            529.06   581.44   735.81   839.16  1089.65
                             1286.91  1336.08  1363.88  1552.07  1561.46
                             1606.31  1710.35  1725.06  1852.66  1970.97
                             2027.29  2043.17  2092.50  2112.13  2120.39
                             2158.49  2175.86  4349.26  4401.06  4430.81
                             4467.00  4493.19  4518.99  4592.10  5466.05

 Zero-point correction=                           0.114637 (Hartree/Particle)
 Thermal correction to Energy=                    0.122026
 Thermal correction to Enthalpy=                  0.122970
 Thermal correction to Gibbs Free Energy=         0.082868
 Sum of electronic and zero-point Energies=           -269.870300
 Sum of electronic and thermal Energies=              -269.862912
 Sum of electronic and thermal Enthalpies=            -269.861967
 Sum of electronic and thermal Free Energies=         -269.902069

                     E (Thermal)             CV                S
                      KCal/Mol        Cal/Mol-Kelvin    Cal/Mol-Kelvin
 Total                   76.572             24.854             84.400
 Electronic               0.000              0.000              1.377
 Translational            0.889              2.981             38.941
 Rotational               0.889              2.981             26.452
 Vibrational             74.795             18.892             17.630
 Vibration     1          0.599              1.966              4.019
 Vibration     2          0.605              1.944              3.333
 Vibration     3          0.620              1.898              2.618
 Vibration     4          0.647              1.811              1.960
 Vibration     5          0.683              1.701              1.503
 Vibration     6          0.740              1.539              1.089
 Vibration     7          0.769              1.461              0.948
 Vibration     8          0.867              1.225              0.630
 Vibration     9          0.940              1.068              0.479

 Optimization completed.
    -- Stationary point found.
 Normal termination of Gaussian 16 at Fri Sep  6 07:44:58 2019.
