 Gaussian 16, Revision A.03,
 Gaussian 16:  EM64L-G16RevA.03 25-Dec-2016

 ----------------------------------------------------------------------
 #p m062x/cc-pVTZ Opt=(ModRedun,Loose,maxcycles=900) Int(Grid=SG1) scf=
 (maxcycle=900)
 ----------------------------------------------------------------------

 ------------------------------
 Gaussian input prepared by ASE
 ------------------------------
 Symbolic Z-matrix:
 Charge =  0 Multiplicity = 2

 SCF Done:  E(UM062X) =  -269.964562831     A.U. after   16 cycles
 SCF Done:  E(UM062X) =  -269.972116157     A.U. after   14 cycles
 SCF Done:  E(UM062X) =  -269.973569744     A.U. after   14 cycles
 SCF Done:  E(UM062X) =  -269.973932548     A.U. after   15 cycles
 SCF Done:  E(UM062X) =  -269.974110659     A.U. after   13 cycles
 SCF Done:  E(UM062X) =  -269.974061191     A.U. after   15 cycles
 SCF Done:  E(UM062X) =  -269.974290550     A.U. after   12 cycles
 SCF Done:  E(UM062X) =  -269.974391217     A.U. after   14 cycles
 SCF Done:  E(UM062X) =  -269.974547190     A.U. after   14 cycles
 SCF Done:  E(UM062X) =  -269.975011157     A.U. after   16 cycles
 SCF Done:  E(UM062X) =  -269.977055036     A.U. after   16 cycles
 SCF Done:  E(UM062X) =  -269.978463923     A.U. after   14 cycles
 SCF Done:  E(UM062X) =  -269.978588578     A.U. after   14 cycles
 SCF Done:  E(UM062X) =  -269.978727259     A.U. after   13 cycles
 SCF Done:  E(UM062X) =  -269.978876825     A.U. after   11 cycles
 SCF Done:  E(UM062X) =  -269.978905839     A.U. after   13 cycles
 SCF Done:  E(UM062X) =  -269.978908727     A.U. after   11 cycles
 SCF Done:  E(UM062X) =  -269.978912232     A.U. after   11 cycles
 SCF Done:  E(UM062X) =  -269.978915458     A.U. after   11 cycles
 SCF Done:  E(UM062X) =  -269.978917563     A.U. after   10 cycles
 Optimization completed.
    -- Stationary point found.

                         Standard orientation:
 ---------------------------------------------------------------------
 Center     Atomic      Atomic             Coordinates (Angstroms)
 Number     Number       Type             X           Y           Z
 ---------------------------------------------------------------------
      1          8           0        1.794819    0.548830    0.459867
      2          8           0        1.653814   -0.342512   -0.599083
      3          6           0       -1.654039   -0.368024   -0.064645
      4          6           0       -0.435443   -1.167221    0.304619
      5          6           0       -1.381770    1.134009   -0.095711
      6          1           0       -2.439886   -0.576007    0.671110
      7          1           0       -2.047124   -0.697619   -1.027083
      8          1           0        0.569702   -0.763160   -0.531911
      9          1           0        0.038549   -0.895099    1.241574
     10          1           0       -0.486214   -2.239191    0.135163
     11          1           0       -0.962537    1.466053    0.854640
     12          1           0       -2.290862    1.701337   -0.287600
     13          1           0       -0.664756    1.369299   -0.883917
     14          1           0        1.521573    1.391262    0.076171
 ---------------------------------------------------------------------

 The electronic state is 2-A.
 Alpha  occ. eigenvalues --  -19.68549 -19.68254 -10.55220 -10.54954 -10.53755
 Alpha  occ. eigenvalues --   -1.26559  -0.98946  -0.90104  -0.78703  -0.69053
 Alpha  occ. eigenvalues --   -0.62163  -0.57647  -0.54410  -0.53039  -0.51290
 Alpha  occ. eigenvalues --   -0.47783  -0.44359  -0.42394  -0.41324  -0.39067
 Alpha  occ. eigenvalues --   -0.37486  -0.28962
 Alpha virt. eigenvalues --    0.05752   0.07218   0.10768   0.11149   0.12053
 Alpha virt. eigenvalues --    0.13484   0.14290   0.16734   0.17270   0.20748
 Alpha virt. eigenvalues --    0.22757   0.25677   0.28039   0.28825   0.30920

  Beta  occ. eigenvalues --  -19.68440 -19.67330 -10.54979 -10.54677 -10.53739
  Beta  occ. eigenvalues --   -1.25007  -0.96656  -0.89290  -0.77434  -0.67857
  Beta  occ. eigenvalues --   -0.61014  -0.54362  -0.53702  -0.52247  -0.49625
  Beta  occ. eigenvalues --   -0.46957  -0.43416  -0.41783  -0.40867  -0.36118
  Beta  occ. eigenvalues --   -0.35901
  Beta virt. eigenvalues --   -0.06988   0.05843   0.07127   0.10806   0.11132
  Beta virt. eigenvalues --    0.12363   0.13513   0.14290   0.16952   0.17585
  Beta virt. eigenvalues --    0.20986   0.23486   0.26112   0.27977   0.28807

 Mulliken charges and spin densities:
               1          2
     1  O   -0.244939   0.031833
     2  O   -0.225430   0.370115
     3  C   -0.188183  -0.043946
     4  C   -0.386247   0.670008
     5  C   -0.396673   0.012857
     6  H    0.127980   0.044073
     7  H    0.128178   0.005924
     8  H    0.232917  -0.020999
     9  H    0.169053  -0.035999
    10  H    0.143672  -0.030515
    11  H    0.130071  -0.001822
    12  H    0.126994   0.000409
    13  H    0.113093   0.000149
    14  H    0.269515  -0.002088
 Sum of Mulliken charges =  -0.00000   1.00000

 Dipole moment (field-independent basis, Debye):
    X=             -2.4426    Y=              0.9006    Z=             -0.0601  Tot=              2.6040
 Quadrupole moment (field-independent basis, Debye-Ang):
   XX=            -36.9847   YY=            -29.3633   ZZ=            -33.6064
   XY=              2.4713   XZ=             -0.0183   YZ=             -0.3067

 Normal termination of Gaussian 16 at Thu Sep  5 19:05:50 2019.
