 Gaussian 16, Revision A.03,
 Gaussian 16:  EM64L-G16RevA.03 25-Dec-2016

 ----------------------------------------------------------------------
 #p m062x/cc-pVTZ Opt=(ModRedun,Loose,maxcycles=900) Int(Grid=SG1) scf=
 (maxcycle=900)
 ----------------------------------------------------------------------

 ------------------------------
 Gaussian input prepared by ASE
 ------------------------------
 Symbolic Z-matrix:
 Charge =  0 Multiplicity = 2

 SCF Done:  E(UM062X) =  -269.964920473     A.U. after   16 cycles
 SCF Done:  E(UM062X) =  -269.971968971     A.U. after   14 cycles
 SCF Done:  E(UM062X) =  -269.973327721     A.U. after   14 cycles
 SCF Done:  E(UM062X) =  -269.973970715     A.U. after   15 cycles
 SCF Done:  E(UM062X) =  -269.973998834     A.U. after   13 cycles
 SCF Done:  E(UM062X) =  -269.972140416     A.U. after   16 cycles
 SCF Done:  E(UM062X) =  -269.974033650     A.U. after   15 cycles
 SCF Done:  E(UM062X) =  -269.974478936     A.U. after   16 cycles
 SCF Done:  E(UM062X) =  -269.975224026     A.U. after   13 cycles
 SCF Done:  E(UM062X) =  -269.976965584     A.U. after   16 cycles
 SCF Done:  E(UM062X) =  -269.977457324     A.U. after   12 cycles
 SCF Done:  E(UM062X) =  -269.977590966     A.U. after   12 cycles
 SCF Done:  E(UM062X) =  -269.977462130     A.U. after   12 cycles
 SCF Done:  E(UM062X) =  -269.977436560     A.U. after   12 cycles
 SCF Done:  E(UM062X) =  -269.977445178     A.U. after   12 cycles
 SCF Done:  E(UM062X) =  -269.977450682     A.U. after   11 cycles
 SCF Done:  E(UM062X) =  -269.977452038     A.U. after   14 cycles
 SCF Done:  E(UM062X) =  -269.977471204     A.U. after   13 cycles
 SCF Done:  E(UM062X) =  -269.977470312     A.U. after   11 cycles
 SCF Done:  E(UM062X) =  -269.977471121     A.U. after   11 cycles
 Optimization completed.
    -- Stationary point found.

                         Standard orientation:
 ---------------------------------------------------------------------
 Center     Atomic      Atomic             Coordinates (Angstroms)
 Number     Number       Type             X           Y           Z
 ---------------------------------------------------------------------
      1          8           0       -2.461408   -0.625252   -0.249835
      2          8           0       -2.003775    0.658323    0.035195
      3          6           0        1.428792    0.254197   -0.492765
      4          6           0        0.311040    0.126256    0.504614
      5          6           0        2.743587   -0.290986    0.078575
      6          1           0        1.563941    1.300135   -0.770182
      7          1           0        1.176380   -0.289127   -1.404157
      8          1           0       -0.846045    0.581572   -0.067405
      9          1           0       -0.002082   -0.890412    0.731468
     10          1           0        0.393263    0.750828    1.390022
     11          1           0        3.026720    0.249953    0.980876
     12          1           0        3.551647   -0.191576   -0.645626
     13          1           0        2.644286   -1.345378    0.335872
     14          1           0       -2.687159   -0.967357    0.623699
 ---------------------------------------------------------------------

 The electronic state is 2-A.
 Alpha  occ. eigenvalues --  -19.68459 -19.68327 -10.55393 -10.54581 -10.53564
 Alpha  occ. eigenvalues --   -1.26537  -0.98955  -0.89818  -0.78582  -0.68520
 Alpha  occ. eigenvalues --   -0.61493  -0.58558  -0.55018  -0.52097  -0.50021
 Alpha  occ. eigenvalues --   -0.46840  -0.46400  -0.41997  -0.40571  -0.39434
 Alpha  occ. eigenvalues --   -0.37284  -0.28957
 Alpha virt. eigenvalues --    0.06166   0.06994   0.10579   0.11106   0.11572
 Alpha virt. eigenvalues --    0.13995   0.15151   0.16206   0.17375   0.18457
 Alpha virt. eigenvalues --    0.21955   0.25320   0.28367   0.28666   0.32098

  Beta  occ. eigenvalues --  -19.68332 -19.67387 -10.54853 -10.54597 -10.53488
  Beta  occ. eigenvalues --   -1.24933  -0.96610  -0.88939  -0.77084  -0.67711
  Beta  occ. eigenvalues --   -0.60173  -0.55428  -0.54454  -0.50617  -0.48821
  Beta  occ. eigenvalues --   -0.46135  -0.44894  -0.41468  -0.40334  -0.37055
  Beta  occ. eigenvalues --   -0.34718
  Beta virt. eigenvalues --   -0.07100   0.06309   0.07087   0.10688   0.11095
  Beta virt. eigenvalues --    0.11682   0.14262   0.15189   0.16579   0.17669
  Beta virt. eigenvalues --    0.18965   0.22284   0.25574   0.28394   0.28674

 Mulliken charges and spin densities:
               1          2
     1  O   -0.247868   0.038803
     2  O   -0.223809   0.375315
     3  C   -0.213043  -0.032134
     4  C   -0.363238   0.660717
     5  C   -0.334002   0.034867
     6  H    0.127780   0.004345
     7  H    0.129405   0.003743
     8  H    0.249350  -0.022348
     9  H    0.129984  -0.035064
    10  H    0.136483  -0.035510
    11  H    0.111903  -0.001868
    12  H    0.116031   0.012496
    13  H    0.113782  -0.001303
    14  H    0.267241  -0.002058
 Sum of Mulliken charges =  -0.00000   1.00000

 Dipole moment (field-independent basis, Debye):
    X=              1.6978    Y=             -0.9557    Z=              1.3906  Tot=              2.3936
 Quadrupole moment (field-independent basis, Debye-Ang):
   XX=            -34.5291   YY=            -32.1437   ZZ=            -32.2654
   XY=              3.6747   XZ=             -4.3661   YZ=             -1.3806

 Normal termination of Gaussian 16 at Thu Sep  5 17:54:40 2019.
