 Gaussian 16, Revision A.03,
 Gaussian 16:  EM64L-G16RevA.03 25-Dec-2016

 ----------------------------------------------------------------------
 #p m062x/cc-pVTZ Opt=(ModRedun,Loose,maxcycles=900) Int(Grid=SG1) scf=
 (maxcycle=900)
 ----------------------------------------------------------------------

 ------------------------------
 Gaussian input prepared by ASE
 ------------------------------
 Symbolic Z-matrix:
 Charge =  0 Multiplicity = 2

 SCF Done:  E(UM062X) =  -269.970161509     A.U. after   16 cycles
 SCF Done:  E(UM062X) =  -269.976644213     A.U. after   14 cycles
 SCF Done:  E(UM062X) =  -269.977877682     A.U. after   14 cycles
 SCF Done:  E(UM062X) =  -269.978280400     A.U. after   15 cycles
 SCF Done:  E(UM062X) =  -269.978257222     A.U. after   15 cycles
 SCF Done:  E(UM062X) =  -269.978647636     A.U. after   13 cycles
 SCF Done:  E(UM062X) =  -269.978695334     A.U. after   14 cycles
 SCF Done:  E(UM062X) =  -269.978779394     A.U. after   13 cycles
 SCF Done:  E(UM062X) =  -269.978794909     A.U. after   12 cycles
 SCF Done:  E(UM062X) =  -269.978792671     A.U. after   11 cycles
 SCF Done:  E(UM062X) =  -269.978797900     A.U. after   11 cycles
 Optimization completed.
    -- Stationary point found.

                         Standard orientation:
 ---------------------------------------------------------------------
 Center     Atomic      Atomic             Coordinates (Angstroms)
 Number     Number       Type             X           Y           Z
 ---------------------------------------------------------------------
      1          8           0        1.850589    0.753831    0.221915
      2          8           0        1.714483   -0.414589   -0.524534
      3          6           0       -1.672106   -0.413550   -0.120478
      4          6           0       -0.429684   -1.109704    0.359308
      5          6           0       -1.553944    1.105534   -0.063302
      6          1           0       -2.518006   -0.741231    0.496186
      7          1           0       -1.903326   -0.736124   -1.137316
      8          1           0        0.581960   -0.677927   -0.455252
      9          1           0       -0.048392   -0.776612    1.321158
     10          1           0       -0.391904   -2.188381    0.234546
     11          1           0       -1.371417    1.441211    0.957692
     12          1           0       -2.464424    1.584809   -0.418240
     13          1           0       -0.719075    1.450422   -0.672276
     14          1           0        2.248412    0.436215    1.041283
 ---------------------------------------------------------------------

 The electronic state is 2-A.
 Alpha  occ. eigenvalues --  -19.68539 -19.68373 -10.55460 -10.54577 -10.52593
 Alpha  occ. eigenvalues --   -1.26552  -0.99046  -0.89680  -0.78241  -0.68529
 Alpha  occ. eigenvalues --   -0.61396  -0.58487  -0.53839  -0.52106  -0.51895
 Alpha  occ. eigenvalues --   -0.47612  -0.43473  -0.41838  -0.40835  -0.39129
 Alpha  occ. eigenvalues --   -0.37389  -0.29001
 Alpha virt. eigenvalues --    0.05813   0.07339   0.10430   0.11768   0.12368
 Alpha virt. eigenvalues --    0.13613   0.15203   0.15687   0.17771   0.20328
 Alpha virt. eigenvalues --    0.22970   0.25918   0.28447   0.29186   0.31520

  Beta  occ. eigenvalues --  -19.68427 -19.67433 -10.54918 -10.54593 -10.52582
  Beta  occ. eigenvalues --   -1.24975  -0.96729  -0.88805  -0.76998  -0.67420
  Beta  occ. eigenvalues --   -0.60226  -0.55554  -0.52848  -0.51225  -0.49954
  Beta  occ. eigenvalues --   -0.46805  -0.42523  -0.41308  -0.40533  -0.37002
  Beta  occ. eigenvalues --   -0.34876
  Beta virt. eigenvalues --   -0.07009   0.06007   0.07295   0.10480   0.11841
  Beta virt. eigenvalues --    0.12307   0.13776   0.15577   0.15832   0.18015
  Beta virt. eigenvalues --    0.20815   0.23576   0.26215   0.28447   0.29190

 Mulliken charges and spin densities:
               1          2
     1  O   -0.244206   0.034230
     2  O   -0.224227   0.373380
     3  C   -0.205088  -0.043643
     4  C   -0.384287   0.668057
     5  C   -0.350895   0.014266
     6  H    0.125854   0.045482
     7  H    0.128737   0.007393
     8  H    0.241536  -0.022462
     9  H    0.140070  -0.039019
    10  H    0.146525  -0.031535
    11  H    0.111860  -0.002490
    12  H    0.116536  -0.000340
    13  H    0.132469  -0.001347
    14  H    0.265118  -0.001972
 Sum of Mulliken charges =  -0.00000   1.00000

 Dipole moment (field-independent basis, Debye):
    X=             -1.2611    Y=             -0.7485    Z=              1.7555  Tot=              2.2875
 Quadrupole moment (field-independent basis, Debye-Ang):
   XX=            -32.8536   YY=            -33.4889   ZZ=            -31.0407
   XY=              0.2035   XZ=              4.7134   YZ=              0.4327

 Normal termination of Gaussian 16 at Thu Sep  5 15:20:04 2019.
